data_OW3_rt_Au5filt_17280_run
_audit_creation_date               2024-01-16
_audit_creation_method
;
Olex2 1.5-alpha
(compiled 2023.11.24 svn.r209d9fb2 for OlexSys, GUI svn.r6869)
;
_audit_contact_author_address      ?
_audit_contact_author_email        ?
_audit_contact_author_name         ''
_audit_contact_author_phone        ?
_publ_contact_author_id_orcid      ?
_publ_section_references
;
Bourhis, L.J., Dolomanov, O.V., Gildea, R.J., Howard, J.A.K., Puschmann, H.
 (2015). Acta Cryst. A71, 59-75.

Dolomanov, O.V., Bourhis, L.J., Gildea, R.J, Howard, J.A.K. & Puschmann, H.
 (2009), J. Appl. Cryst. 42, 339-341.
;
_chemical_formula_moiety           'O2 U1'
_chemical_formula_sum              'O2 U'
_chemical_formula_weight           270.028
_space_group_crystal_system        'cubic'
_space_group_IT_number             225
_space_group_name_H-M_alt          'F m -3 m'
_space_group_name_Hall             '-F 4 2 3'
loop_
  _space_group_symop_id
  _space_group_symop_operation_xyz
 1 x,y,z
 2 x,-z,y
 3 x,z,-y
 4 z,y,-x
 5 -z,y,x
 6 -y,x,z
 7 y,-x,z
 8 z,x,y
 9 y,z,x
 10 -y,-z,x
 11 z,-x,-y
 12 -y,z,-x
 13 -z,-x,y
 14 -z,x,-y
 15 y,-z,-x
 16 x,-y,-z
 17 -x,y,-z
 18 -x,-y,z
 19 y,x,-z
 20 -y,-x,-z
 21 z,-y,x
 22 -z,-y,-x
 23 -x,z,y
 24 -x,-z,-y
 25 -x,-y,-z
 26 -x,z,-y
 27 -x,-z,y
 28 -z,-y,x
 29 z,-y,-x
 30 y,-x,-z
 31 -y,x,-z
 32 -z,-x,-y
 33 -y,-z,-x
 34 y,z,-x
 35 -z,x,y
 36 y,-z,x
 37 z,x,-y
 38 z,-x,y
 39 -y,z,x
 40 -x,y,z
 41 x,-y,z
 42 x,y,-z
 43 -y,-x,z
 44 y,x,z
 45 -z,y,-x
 46 z,y,x
 47 x,-z,-y
 48 x,z,y
 49 x,y+1/2,z+1/2
 50 x,-z+1/2,y+1/2
 51 x,z+1/2,-y+1/2
 52 z,y+1/2,-x+1/2
 53 -z,y+1/2,x+1/2
 54 -y,x+1/2,z+1/2
 55 y,-x+1/2,z+1/2
 56 z,x+1/2,y+1/2
 57 y,z+1/2,x+1/2
 58 -y,-z+1/2,x+1/2
 59 z,-x+1/2,-y+1/2
 60 -y,z+1/2,-x+1/2
 61 -z,-x+1/2,y+1/2
 62 -z,x+1/2,-y+1/2
 63 y,-z+1/2,-x+1/2
 64 x,-y+1/2,-z+1/2
 65 -x,y+1/2,-z+1/2
 66 -x,-y+1/2,z+1/2
 67 y,x+1/2,-z+1/2
 68 -y,-x+1/2,-z+1/2
 69 z,-y+1/2,x+1/2
 70 -z,-y+1/2,-x+1/2
 71 -x,z+1/2,y+1/2
 72 -x,-z+1/2,-y+1/2
 73 -x,-y+1/2,-z+1/2
 74 -x,z+1/2,-y+1/2
 75 -x,-z+1/2,y+1/2
 76 -z,-y+1/2,x+1/2
 77 z,-y+1/2,-x+1/2
 78 y,-x+1/2,-z+1/2
 79 -y,x+1/2,-z+1/2
 80 -z,-x+1/2,-y+1/2
 81 -y,-z+1/2,-x+1/2
 82 y,z+1/2,-x+1/2
 83 -z,x+1/2,y+1/2
 84 y,-z+1/2,x+1/2
 85 z,x+1/2,-y+1/2
 86 z,-x+1/2,y+1/2
 87 -y,z+1/2,x+1/2
 88 -x,y+1/2,z+1/2
 89 x,-y+1/2,z+1/2
 90 x,y+1/2,-z+1/2
 91 -y,-x+1/2,z+1/2
 92 y,x+1/2,z+1/2
 93 -z,y+1/2,-x+1/2
 94 z,y+1/2,x+1/2
 95 x,-z+1/2,-y+1/2
 96 x,z+1/2,y+1/2
 97 x+1/2,y,z+1/2
 98 x+1/2,-z,y+1/2
 99 x+1/2,z,-y+1/2
 100 z+1/2,y,-x+1/2
 101 -z+1/2,y,x+1/2
 102 -y+1/2,x,z+1/2
 103 y+1/2,-x,z+1/2
 104 z+1/2,x,y+1/2
 105 y+1/2,z,x+1/2
 106 -y+1/2,-z,x+1/2
 107 z+1/2,-x,-y+1/2
 108 -y+1/2,z,-x+1/2
 109 -z+1/2,-x,y+1/2
 110 -z+1/2,x,-y+1/2
 111 y+1/2,-z,-x+1/2
 112 x+1/2,-y,-z+1/2
 113 -x+1/2,y,-z+1/2
 114 -x+1/2,-y,z+1/2
 115 y+1/2,x,-z+1/2
 116 -y+1/2,-x,-z+1/2
 117 z+1/2,-y,x+1/2
 118 -z+1/2,-y,-x+1/2
 119 -x+1/2,z,y+1/2
 120 -x+1/2,-z,-y+1/2
 121 -x+1/2,-y,-z+1/2
 122 -x+1/2,z,-y+1/2
 123 -x+1/2,-z,y+1/2
 124 -z+1/2,-y,x+1/2
 125 z+1/2,-y,-x+1/2
 126 y+1/2,-x,-z+1/2
 127 -y+1/2,x,-z+1/2
 128 -z+1/2,-x,-y+1/2
 129 -y+1/2,-z,-x+1/2
 130 y+1/2,z,-x+1/2
 131 -z+1/2,x,y+1/2
 132 y+1/2,-z,x+1/2
 133 z+1/2,x,-y+1/2
 134 z+1/2,-x,y+1/2
 135 -y+1/2,z,x+1/2
 136 -x+1/2,y,z+1/2
 137 x+1/2,-y,z+1/2
 138 x+1/2,y,-z+1/2
 139 -y+1/2,-x,z+1/2
 140 y+1/2,x,z+1/2
 141 -z+1/2,y,-x+1/2
 142 z+1/2,y,x+1/2
 143 x+1/2,-z,-y+1/2
 144 x+1/2,z,y+1/2
 145 x+1/2,y+1/2,z
 146 x+1/2,-z+1/2,y
 147 x+1/2,z+1/2,-y
 148 z+1/2,y+1/2,-x
 149 -z+1/2,y+1/2,x
 150 -y+1/2,x+1/2,z
 151 y+1/2,-x+1/2,z
 152 z+1/2,x+1/2,y
 153 y+1/2,z+1/2,x
 154 -y+1/2,-z+1/2,x
 155 z+1/2,-x+1/2,-y
 156 -y+1/2,z+1/2,-x
 157 -z+1/2,-x+1/2,y
 158 -z+1/2,x+1/2,-y
 159 y+1/2,-z+1/2,-x
 160 x+1/2,-y+1/2,-z
 161 -x+1/2,y+1/2,-z
 162 -x+1/2,-y+1/2,z
 163 y+1/2,x+1/2,-z
 164 -y+1/2,-x+1/2,-z
 165 z+1/2,-y+1/2,x
 166 -z+1/2,-y+1/2,-x
 167 -x+1/2,z+1/2,y
 168 -x+1/2,-z+1/2,-y
 169 -x+1/2,-y+1/2,-z
 170 -x+1/2,z+1/2,-y
 171 -x+1/2,-z+1/2,y
 172 -z+1/2,-y+1/2,x
 173 z+1/2,-y+1/2,-x
 174 y+1/2,-x+1/2,-z
 175 -y+1/2,x+1/2,-z
 176 -z+1/2,-x+1/2,-y
 177 -y+1/2,-z+1/2,-x
 178 y+1/2,z+1/2,-x
 179 -z+1/2,x+1/2,y
 180 y+1/2,-z+1/2,x
 181 z+1/2,x+1/2,-y
 182 z+1/2,-x+1/2,y
 183 -y+1/2,z+1/2,x
 184 -x+1/2,y+1/2,z
 185 x+1/2,-y+1/2,z
 186 x+1/2,y+1/2,-z
 187 -y+1/2,-x+1/2,z
 188 y+1/2,x+1/2,z
 189 -z+1/2,y+1/2,-x
 190 z+1/2,y+1/2,x
 191 x+1/2,-z+1/2,-y
 192 x+1/2,z+1/2,y

_symmetry_Int_Tables_number        225
_cell_length_a                     5.4754(2)
_cell_length_b                     5.4754(2)
_cell_length_c                     5.4754(2)
_cell_angle_alpha                  90
_cell_angle_beta                   90
_cell_angle_gamma                  90
_cell_volume                       164.151(10)
_cell_formula_units_Z              4
_exptl_absorpt_coefficient_mu      44.927
_exptl_crystal_density_diffrn      10.926
_exptl_crystal_F_000               386.683
_diffrn_reflns_av_R_equivalents    0.1101
_diffrn_reflns_av_unetI/netI       0.0183
_diffrn_reflns_Laue_measured_fraction_full  1.0000
_diffrn_reflns_Laue_measured_fraction_max  0.9773
_diffrn_reflns_limit_h_max         9
_diffrn_reflns_limit_h_min         -9
_diffrn_reflns_limit_k_max         9
_diffrn_reflns_limit_k_min         -9
_diffrn_reflns_limit_l_max         9
_diffrn_reflns_limit_l_min         -9
_diffrn_reflns_number              1973
_diffrn_reflns_point_group_measured_fraction_full  1.0000
_diffrn_reflns_point_group_measured_fraction_max  0.9773
_diffrn_reflns_theta_full          25.5008
_diffrn_reflns_theta_max           40.69
_diffrn_reflns_theta_min           6.52
_diffrn_measured_fraction_theta_full  1.0000
_diffrn_measured_fraction_theta_max  0.9773
_diffrn_radiation_type             synchrotron
_diffrn_radiation_wavelength       0.71754
_reflns_Friedel_coverage           0.0
_reflns_limit_h_max                5
_reflns_limit_h_min                0
_reflns_limit_k_max                9
_reflns_limit_k_min                1
_reflns_limit_l_max                7
_reflns_limit_l_min                0
_reflns_number_gt                  43
_reflns_number_total               43
_reflns_threshold_expression       I>=2u(I)
_computing_molecular_graphics      'Olex2 1.5-alpha (Dolomanov et al., 2009)'
_computing_publication_material    'Olex2 1.5-alpha (Dolomanov et al., 2009)'
_computing_structure_refinement   
 'olex2.refine 1.5-alpha (Bourhis et al., 2015)'
_refine_diff_density_max           2.6982
_refine_diff_density_min           -2.4422
_refine_diff_density_rms           0.5013
_refine_ls_d_res_high              0.5503
_refine_ls_d_res_low               3.1612
_refine_ls_extinction_coef         0.021(4)
_refine_ls_extinction_expression   Fc^*^=kFc[1+0.001xFc^2^\l^3^/sin(2\q)]^-1/4^
_refine_ls_goodness_of_fit_ref     1.0540
_refine_ls_hydrogen_treatment      undef
_refine_ls_matrix_type             full
_refine_ls_number_constraints      0
_refine_ls_number_parameters       6
_refine_ls_number_reflns           43
_refine_ls_number_restraints       0
_refine_ls_R_factor_all            0.0141
_refine_ls_R_factor_gt             0.0141
_refine_ls_restrained_S_all        1.0540
_refine_ls_shift/su_max            -0.0029
_refine_ls_shift/su_mean           0.0007
_refine_ls_structure_factor_coef   Fsqd
_refine_ls_weighting_details      
 'w=1/[\s^2^(Fo^2^)+(0.0000P)^2^+17.4132P] where P=(Fo^2^+2Fc^2^)/3'
_refine_ls_weighting_scheme        calc
_refine_ls_wR_factor_gt            0.0361
_refine_ls_wR_factor_ref           0.0361
_olex2_refinement_description
;
;
loop_
  _atom_site_label
  _atom_site_type_symbol
  _atom_site_fract_x
  _atom_site_fract_y
  _atom_site_fract_z
  _atom_site_U_iso_or_equiv
  _atom_site_adp_type
  _atom_site_occupancy
  _atom_site_site_symmetry_order
  _atom_site_refinement_flags_posn
  _atom_site_refinement_flags_adp
  _atom_site_refinement_flags_occupancy
 U1 U 0.5 0.0 0.0 0.004(2) Uiso 1.000000 48 S T P
 O1 O 0.25 0.25 -0.25 0.007(4) Uiso 1.000000 24 S T P

loop_
  _geom_bond_atom_site_label_1
  _geom_bond_atom_site_label_2
  _geom_bond_distance
  _geom_bond_site_symmetry_2
  _geom_bond_publ_flag
 U1 U1 3.87168(14) 4 ?
 U1 U1 3.87168(14) 49_544 ?
 U1 U1 3.87168(14) 6_645 ?
 U1 U1 3.87168(14) 49 ?
 U1 U1 3.87168(14) 49_554 ?
 U1 U1 3.87168(14) 4_655 ?
 U1 U1 3.87168(14) 6_655 ?
 U1 U1 3.87168(14) 4_656 ?
 U1 U1 3.87168(14) 49_545 ?
 U1 U1 3.87168(14) 6_545 ?
 U1 U1 3.87168(14) 6 ?
 U1 U1 3.87168(14) 4_556 ?
 U1 O1 2.3709 8_655 ?
 U1 O1 2.3709 2 ?
 U1 O1 2.3709 3 ?
 U1 O1 2.3709 9 ?
 U1 O1 2.3709 . ?
 U1 O1 2.3709 11_655 ?
 U1 O1 2.3709 4_655 ?
 U1 O1 2.3709 20_655 ?

loop_
  _geom_angle_atom_site_label_1
  _geom_angle_atom_site_label_2
  _geom_angle_atom_site_label_3
  _geom_angle
  _geom_angle_site_symmetry_1
  _geom_angle_site_symmetry_3
  _geom_angle_publ_flag
 U1 U1 U1 180.0 4_655 4_556 ?
 U1 U1 U1 120.0 49_545 6 ?
 U1 U1 U1 120.0 49 6_545 ?
 U1 U1 U1 90.0 4_656 4_556 ?
 U1 U1 U1 60.0 49_554 6 ?
 U1 U1 U1 90.0 4_656 4_655 ?
 U1 U1 U1 60.0 49_545 4_556 ?
 U1 U1 U1 60.0 6_545 4_556 ?
 U1 U1 U1 120.0 49_554 4_556 ?
 U1 U1 U1 120.0 6_545 4_655 ?
 U1 U1 U1 180.0 49_554 49_545 ?
 U1 U1 U1 120.0 6_545 4_656 ?
 U1 U1 U1 180.0 49 49_544 ?
 U1 U1 U1 60.0 6 4_556 ?
 U1 U1 U1 60.0 49_545 4_656 ?
 U1 U1 U1 120.0 6 4_655 ?
 U1 U1 U1 120.0 49_545 6_655 ?
 U1 U1 U1 120.0 6 4_656 ?
 U1 U1 U1 120.0 49_554 4_656 ?
 U1 U1 U1 90.0 6 6_545 ?
 U1 U1 U1 60.0 49_554 6_655 ?
 U1 U1 U1 120.0 6_645 4_556 ?
 U1 U1 U1 120.0 49 4_655 ?
 U1 U1 U1 60.0 6_645 4_655 ?
 U1 U1 U1 120.0 49 6_645 ?
 U1 U1 U1 60.0 6_645 4_656 ?
 U1 U1 U1 120.0 49_544 6_655 ?
 U1 U1 U1 90.0 6_645 6_545 ?
 U1 U1 U1 120.0 49_545 4_655 ?
 U1 U1 U1 180.0 6_645 6 ?
 U1 U1 U1 60.0 49_545 6_545 ?
 U1 U1 U1 120.0 6_655 4_556 ?
 U1 U1 U1 60.0 49_545 6_645 ?
 U1 U1 U1 60.0 6_655 4_655 ?
 U1 U1 U1 90.0 49_545 49_544 ?
 U1 U1 U1 60.0 6_655 4_656 ?
 U1 U1 U1 60.0 49_554 4_655 ?
 U1 U1 U1 180.0 6_655 6_545 ?
 U1 U1 U1 120.0 49_554 6_545 ?
 U1 U1 U1 90.0 6_655 6 ?
 U1 U1 U1 120.0 49_554 6_645 ?
 U1 U1 U1 90.0 6_655 6_645 ?
 U1 U1 U1 90.0 49_554 49_544 ?
 U1 U1 U1 120.0 49_544 4_556 ?
 U1 U1 U1 60.0 49 4_556 ?
 U1 U1 U1 60.0 49_544 4_655 ?
 U1 U1 U1 60.0 49 4_656 ?
 U1 U1 U1 120.0 49_544 4_656 ?
 U1 U1 U1 60.0 49 6 ?
 U1 U1 U1 60.0 49_544 6_545 ?
 U1 U1 U1 60.0 49 6_655 ?
 U1 U1 U1 120.0 49_544 6 ?
 U1 U1 U1 90.0 49 49_545 ?
 U1 U1 U1 60.0 49_544 6_645 ?
 U1 U1 U1 90.0 49 49_554 ?
 O1 U1 U1 144.7 9 4_655 ?
 O1 U1 U1 144.7 4_655 4_556 ?
 O1 U1 U1 90.0 8_655 6_645 ?
 O1 U1 U1 35.3 9 6_545 ?
 O1 U1 U1 144.7 4_655 49_545 ?
 O1 U1 U1 90.0 9 6_645 ?
 O1 U1 U1 144.7 3 6_655 ?
 O1 U1 U1 90.0 9 49_544 ?
 O1 U1 U1 90.0 4_655 6 ?
 O1 U1 U1 144.7 9 49_554 ?
 O1 U1 U1 90.0 8_655 4_655 ?
 O1 U1 U1 144.7 11_655 4_556 ?
 O1 U1 U1 90.0 8_655 49_554 ?
 O1 U1 U1 90.0 11_655 4_656 ?
 O1 U1 U1 90.0 3 49_545 ?
 O1 U1 U1 144.7 11_655 6 ?
 O1 U1 U1 90.0 4_655 4_656 ?
 O1 U1 U1 90.0 11_655 6_655 ?
 O1 U1 U1 35.3 4_655 6_655 ?
 O1 U1 U1 90.0 11_655 49_545 ?
 O1 U1 U1 90.0 4_655 49 ?
 O1 U1 U1 144.7 11_655 49 ?
 O1 U1 U1 144.7 8_655 6_545 ?
 O1 U1 U1 90.0 20_655 4_655 ?
 O1 U1 U1 144.7 8_655 49_544 ?
 O1 U1 U1 90.0 20_655 6_545 ?
 O1 U1 U1 35.3 9 4_556 ?
 O1 U1 U1 35.3 20_655 6_645 ?
 O1 U1 U1 35.3 3 49_544 ?
 O1 U1 U1 90.0 20_655 49_544 ?
 O1 U1 U1 90.0 3 49_554 ?
 O1 U1 U1 144.7 20_655 49_554 ?
 O1 U1 U1 35.3 4_655 4_655 ?
 O1 U1 U1 144.7 . 6_645 ?
 O1 U1 U1 144.7 4_655 6_545 ?
 O1 U1 U1 90.0 . 6_655 ?
 O1 U1 U1 90.0 4_655 6_645 ?
 O1 U1 U1 90.0 . 49_544 ?
 O1 U1 U1 90.0 4_655 49_544 ?
 O1 U1 U1 144.7 . 49_545 ?
 O1 U1 U1 35.3 4_655 49_554 ?
 O1 U1 U1 35.3 . 49_554 ?
 O1 U1 U1 90.0 8_655 4_556 ?
 O1 U1 U1 90.0 . 49 ?
 O1 U1 U1 35.3 8_655 4_656 ?
 O1 U1 U1 90.0 3 4_556 ?
 O1 U1 U1 90.0 8_655 6 ?
 O1 U1 U1 90.0 3 4_655 ?
 O1 U1 U1 35.3 8_655 6_655 ?
 O1 U1 U1 144.7 3 4_656 ?
 O1 U1 U1 90.0 8_655 49_545 ?
 O1 U1 U1 35.3 3 6_545 ?
 O1 U1 U1 35.3 8_655 49 ?
 O1 U1 U1 90.0 3 6 ?
 O1 U1 U1 90.0 3 6_645 ?
 O1 U1 U1 90.0 9 4_656 ?
 O1 U1 U1 35.3 2 4_556 ?
 O1 U1 U1 90.0 9 6 ?
 O1 U1 U1 144.7 2 4_655 ?
 O1 U1 U1 144.7 9 6_655 ?
 O1 U1 U1 90.0 2 4_656 ?
 O1 U1 U1 35.3 9 49_545 ?
 O1 U1 U1 90.0 2 6_545 ?
 O1 U1 U1 90.0 9 49 ?
 O1 U1 U1 35.3 2 6 ?
 O1 U1 U1 35.3 11_655 4_655 ?
 O1 U1 U1 144.7 2 6_645 ?
 O1 U1 U1 90.0 11_655 6_545 ?
 O1 U1 U1 90.0 2 6_655 ?
 O1 U1 U1 35.3 11_655 6_645 ?
 O1 U1 U1 144.7 2 49_544 ?
 O1 U1 U1 35.3 11_655 49_544 ?
 O1 U1 U1 90.0 2 49_545 ?
 O1 U1 U1 90.0 11_655 49_554 ?
 O1 U1 U1 90.0 2 49_554 ?
 O1 U1 U1 90.0 20_655 4_556 ?
 O1 U1 U1 35.3 2 49 ?
 O1 U1 U1 35.3 20_655 4_656 ?
 O1 U1 U1 90.0 . 4_556 ?
 O1 U1 U1 144.7 20_655 6 ?
 O1 U1 U1 90.0 . 4_655 ?
 O1 U1 U1 90.0 20_655 6_655 ?
 O1 U1 U1 144.7 . 4_656 ?
 O1 U1 U1 35.3 20_655 49_545 ?
 O1 U1 U1 90.0 . 6_545 ?
 O1 U1 U1 90.0 20_655 49 ?
 O1 U1 U1 35.3 . 6 ?
 O1 U1 U1 144.7 3 49 ?
 O1 U1 O1 70.5 8_655 2 ?
 O1 U1 O1 109.5 3 2 ?
 O1 U1 O1 70.5 20_655 8_655 ?
 O1 U1 O1 109.5 8_655 . ?
 O1 U1 O1 109.5 20_655 2 ?
 O1 U1 O1 180.0 8_655 3 ?
 O1 U1 O1 109.5 9 8_655 ?
 O1 U1 O1 70.5 8_655 4_655 ?
 O1 U1 O1 70.5 3 . ?
 O1 U1 O1 180.0 11_655 2 ?
 O1 U1 O1 109.5 20_655 3 ?
 O1 U1 O1 109.5 11_655 . ?
 O1 U1 O1 70.5 20_655 11_655 ?
 O1 U1 O1 70.5 11_655 3 ?
 O1 U1 O1 109.5 4_655 2 ?
 O1 U1 O1 70.5 11_655 4_655 ?
 O1 U1 O1 109.5 4_655 3 ?
 O1 U1 O1 109.5 11_655 8_655 ?
 O1 U1 O1 70.5 . 2 ?
 O1 U1 O1 109.5 11_655 9 ?
 O1 U1 O1 180.0 20_655 . ?
 O1 U1 O1 70.5 9 2 ?
 O1 U1 O1 109.5 20_655 4_655 ?
 O1 U1 O1 109.5 9 . ?
 O1 U1 O1 70.5 20_655 9 ?
 O1 U1 O1 70.5 9 3 ?
 O1 U1 O1 180.0 9 4_655 ?
 O1 U1 O1 70.5 4_655 . ?
 U1 O1 U1 109.5 11_565 3 ?
 U1 O1 U1 109.5 51_554 11_565 ?
 U1 O1 U1 109.5 51_554 3 ?
 U1 O1 U1 109.5 12 3 ?
 U1 O1 U1 109.5 51_554 12 ?
 U1 O1 U1 109.5 12 11_565 ?

loop_
  _diffrn_refln_index_h
  _diffrn_refln_index_k
  _diffrn_refln_index_l
  _diffrn_refln_intensity_net
  _diffrn_refln_intensity_u
  _diffrn_refln_scale_group_code
 -1 -1 -1 548830 3794.48 3
 1 -1 1 481212 3891.42 1
 -1 -1 -1 550986 3090.06 10
 -1 -1 -1 475778 2840.99 9
 1 1 -1 498312 7638.7 4
 1 1 -1 684136 7607.24 5
 -1 1 1 542456 4746.73 2
 -1 1 1 562733 4029.21 10
 1 1 -1 626461 7770.78 7
 -1 -1 -1 378318 3095.78 2
 -1 1 1 545780 3878.38 9
 -1 -1 -1 501729 3085.01 5
 1 -1 1 509431 4930.13 6
 -1 -1 -1 490885 5899.88 1
 1 -1 -1 634478 4305.26 1
 -1 -1 1 498241 6570.53 3
 -1 1 -1 527952 4180.54 3
 1 -1 -1 540286 4549.58 7
 -1 1 -1 442854 3538.08 5
 -1 -1 1 506928 7007.16 10
 1 -1 -1 513722 3961.97 6
 -1 -1 1 450122 6409.28 1
 -1 1 -1 564193 4561.74 9
 1 1 1 673469 5479.19 6
 -1 -1 1 538108 8081.83 8
 -1 -1 1 567839 7948.63 9
 -1 1 -1 458892 4927.88 2
 -2 0 0 380688 4182.11 2
 0 -2 0 422556 4680.82 7
 -2 0 0 394503 4286.57 10
 0 2 0 376950 4348.33 4
 -2 0 0 372077 4124.89 9
 0 0 -2 448693 5127.59 4
 2 0 0 451216 4726.6 6
 2 0 0 437898 3844.6 7
 0 0 2 474161 4718.92 10
 0 -2 0 429597 3575.07 10
 0 -2 0 373594 5304.21 3
 0 0 2 375083 2666.23 6
 0 0 -2 491552 6046.81 7
 0 0 2 491348 4769.19 9
 0 -2 0 407501 3472.25 9
 0 -2 0 352299 4128.98 1
 -2 0 0 379060 3801.22 8
 0 0 -2 393616 4838.51 5
 0 -2 0 366982 5069.28 8
 0 -2 0 446168 6107.35 6
 0 2 0 433036 2281.57 5
 2 0 0 368851 4740.51 4
 0 0 2 451092 4350.34 8
 -2 0 0 359931 3344.08 3
 -2 2 2 338227 4592.96 9
 -2 -2 -2 377167 3852.39 5
 2 -2 2 413070 5336.68 8
 2 2 -2 453930 8616.7 5
 2 -2 2 356314 5827.07 6
 2 -2 2 394986 5008.31 10
 -2 2 2 396211 4985.06 10
 -2 -2 -2 289678 3339.33 10
 2 2 -2 494167 9012.25 7
 -2 2 2 375998 3784.15 8
 -2 2 2 336441 5457.14 2
 2 -2 2 348998 4695.96 1
 -2 -2 -2 375337 7114.97 1
 -2 -2 -2 376888 4552.58 3
 2 -2 2 378344 4847.07 9
 2 2 -2 371544 8971.57 4
 2 2 0 566346 9307.01 4
 0 2 2 697633 5909.77 2
 2 2 0 783271 8937.9 7
 -2 0 2 629801 8706.47 2
 -2 -2 0 623041 6466.23 8
 -2 0 2 556696 7147.07 10
 -2 0 -2 614066 5690.52 9
 0 2 -2 643186 8106.14 4
 -2 0 -2 590350 5530.34 3
 0 -2 -2 582664 7155.37 5
 0 -2 2 535451 6780.73 6
 2 0 -2 645564 7864.19 7
 -2 -2 0 634056 6937.79 3
 -2 0 2 571638 6616.7 3
 -2 0 -2 660065 6171.52 10
 2 0 2 645463 6511.32 6
 0 -2 -2 638404 5540.87 7
 2 -2 0 705249 7476.16 7
 2 0 -2 504334 5026.31 6
 -2 -2 0 526119 3774.05 2
 -2 2 0 638202 6791.92 2
 2 0 -2 563488 8780.73 4
 0 2 -2 584142 6753.5 2
 2 -2 0 679147 7280.97 6
 2 -2 0 649936 6278.72 1
 -2 0 2 605060 9101.28 8
 0 -2 2 629242 6510.67 9
 -2 0 -2 602171 5510.44 5
 0 -2 2 603838 6313.84 10
 -2 2 0 634722 6364.83 9
 2 0 -2 539448 8579.11 5
 0 -2 2 664278 7254.41 8
 -2 2 0 664264 6959.97 10
 -2 2 0 661759 4952.49 3
 0 2 2 712277 4270.07 8
 0 -2 -2 700482 7206.73 1
 -2 0 2 664902 8087.36 9
 0 2 -2 563105 5588.82 5
 -2 -2 0 565819 9761.41 1
 -2 -2 2 437092 8866.43 8
 2 -2 -2 409477 5246.27 1
 -2 2 -2 357626 4676.67 5
 -2 -2 2 444958 8588.21 10
 2 -2 -2 332065 5327.69 7
 2 -2 -2 398890 5146.69 6
 -2 -2 2 438091 7884.4 3
 -2 2 -2 377700 5121.82 4
 2 2 2 320149 5582.4 4
 -2 2 -2 335093 5850.61 2
 2 2 2 454932 6287.21 6
 -2 -2 2 508826 9707.91 9
 -2 2 -2 345205 5095.5 3
 -2 -2 2 381106 7794.38 1
 -3 1 1 453827 5951.97 9
 3 1 -1 476195 7077.73 6
 1 1 -3 588319 10076.6 7
 3 -1 1 501104 6226.02 7
 1 -3 1 450222 6953.93 6
 1 1 -3 400274 6951.69 5
 -3 -1 -1 452185 5339.09 3
 1 -3 1 487745 5413.44 10
 1 -1 3 451908 4024.05 1
 -3 1 1 446241 6877.84 2
 -3 1 1 465140 5144.11 8
 -3 1 1 446852 6192.32 10
 -1 -3 -1 567367 8095.42 9
 -3 -1 -1 513913 5738.42 2
 1 -1 3 455969 5434.05 6
 1 3 -1 435380 7451.88 4
 1 -1 3 509183 6134.18 8
 1 -1 3 418508 4903.14 9
 -3 -1 -1 537738 5254.4 5
 3 1 -1 433912 8456.75 4
 -1 1 3 544394 6198.16 9
 -1 1 3 502556 5447.35 10
 1 -3 1 622016 6186.49 8
 -1 -3 -1 508914 4322.37 8
 -3 -1 -1 473377 5668.4 10
 1 3 -1 521261 6228.87 5
 3 -1 1 506626 6873.49 6
 -1 -1 -3 474139 5060 3
 -1 3 1 428974 5521.49 2
 -1 -1 -3 486337 5999.27 5
 1 -1 3 443114 5067.44 10
 -1 -3 -1 440134 8273.52 1
 -3 -1 -1 403426 5458.75 9
 -1 -1 -3 410570 3951.33 7
 1 -3 1 459464 5235.97 9
 -3 1 1 432275 4368.01 3
 -1 -3 -1 505426 7194.28 10
 1 -3 1 439878 5671.39 1
 1 -1 -3 406412 3394.3 1
 -3 -1 1 458722 7385.71 9
 -1 -1 3 447631 7767.61 9
 3 -1 -1 457174 5880.17 7
 -3 1 -1 445220 5015.73 3
 1 -1 -3 525037 7035.37 4
 -1 -3 1 479091 7253.45 10
 -1 1 -3 509723 7573.76 4
 -1 -1 3 431484 7737.6 10
 -1 3 -1 456307 6438.81 4
 3 1 1 430885 6146.69 4
 1 -3 -1 578582 4580.17 3
 1 -1 -3 486734 8994.66 5
 1 1 3 501968 4719.48 6
 -3 -1 1 461506 6368.07 2
 -1 -3 1 475217 7347.1 9
 -3 -1 1 443035 6771.87 8
 -3 1 -1 469683 5981.92 9
 1 -1 -3 523933 6483.51 7
 1 -3 -1 521424 4498.39 9
 -1 3 -1 456922 6103.12 2
 1 -3 -1 536003 4656.3 10
 3 -1 -1 564849 6960.38 6
 1 -3 -1 430546 5548.73 1
 -3 -1 1 446602 6080.39 3
 1 -3 -1 531584 6906.43 7
 1 1 3 515952 5518.47 8
 -3 1 -1 467704 6539.87 10
 -1 1 -3 458929 6957.86 2
 -1 3 -1 471732 4497.35 5
 -1 1 -3 398394 5118.79 5
 -3 1 -1 485436 6787.63 2
 1 1 3 582155 4489.28 9
 3 1 1 495755 3777.59 7
 -1 -3 1 546235 9224.95 8
 -3 -1 1 486048 7657.66 10
 -1 -3 1 599437 9240.27 3
 -1 -3 1 422574 7355.09 1
 1 1 3 588418 4449.34 10
 1 3 1 443039 5720 4
 1 -3 -1 547770 7873.09 6
 -3 1 -1 438018 5167.43 5
 -1 -1 3 454948 7315.31 8
 3 1 1 506234 6762.59 6
 -1 -1 3 571445 7317.99 1
 3 3 -3 424426 9612.74 7
 -3 3 3 306894 6220.54 2
 3 -3 3 325520 5615.73 9
 3 3 -3 327688 9566.79 4
 3 -3 3 343990 6340.46 8
 -3 -3 -3 339916 5448.36 3
 3 3 -3 394015 8605.56 5
 3 -3 3 323177 5742.7 1
 3 -3 3 337215 5759.07 10
 3 -3 3 300950 6460.63 6
 -3 -3 -1 416458 6302.5 9
 -3 -1 -3 449323 7354.24 2
 -3 -3 -1 437578 6608.15 10
 -3 -3 -1 365537 9525.53 1
 3 1 -3 242681 5228.21 6
 -3 1 3 369956 7638.81 2
 -1 -3 -3 398536 4540.7 3
 1 -3 3 425760 6947.74 8
 1 -3 3 353659 5658.83 9
 3 1 -3 399079 8996.78 5
 -1 3 3 258763 3038.6 9
 3 3 -1 480690 9606.78 7
 -3 -1 -3 368805 5296.04 3
 -3 -1 -3 307727 4757.01 10
 -3 1 3 380986 7419.44 8
 -3 -3 -1 388376 5689.98 3
 1 -3 3 370125 5851.67 10
 -3 -1 -3 286032 4434.75 9
 -1 3 3 314795 3448.78 10
 1 3 -3 321536 8199.15 4
 -1 3 3 386300 5780.07 2
 3 -1 3 396864 6577.87 6
 3 -3 1 371009 5900.36 1
 3 -3 1 400367 7018.49 7
 -1 -3 -3 161822 4315.28 5
 -3 -1 -3 400550 5492.01 5
 3 1 -3 380468 8132.62 7
 3 -3 1 381599 7087.37 6
 -1 -3 -3 343239 8172.13 1
 -3 -3 -1 400223 3876.77 5
 3 3 -1 364621 9599.78 4
 1 -3 3 343159 6545.14 6
 1 -3 3 336611 5286.02 1
 3 -1 3 403510 5387.44 1
 3 1 -3 332497 8669.63 4
 3 -1 3 450245 5814.4 10
 -3 3 1 371038 6488.51 2
 3 -1 3 427053 5611.3 9
 -1 -3 3 326366 6615.92 1
 3 3 1 541417 7968.22 7
 -1 -3 3 336520 6880.31 10
 1 3 3 369440 4886.87 4
 -3 3 -1 381533 4982.3 5
 3 -3 -1 432667 6489.45 1
 -3 -3 1 344103 7213.31 3
 -1 -3 3 347322 6909.29 9
 -3 1 -3 371433 4607.09 4
 -3 -3 1 217345 4730.44 2
 3 -3 -1 449842 7554.03 6
 -3 3 -1 390342 6711.44 2
 -1 -3 3 388665 8119.06 8
 1 -3 -3 432366 6088.41 1
 1 3 3 474639 6655.49 6
 -3 -3 1 336304 6940.18 8
 -3 1 -3 385326 6877.72 2
 3 -1 -3 264161 4765.85 6
 -3 1 -3 390770 5649.19 5
 -1 3 -3 344506 6604.75 2
 -3 -3 1 393584 9913.5 1
 3 3 1 472606 9331.95 6
 1 3 3 389837 4532.59 2
 -3 -1 3 447367 9366.93 8
 -3 3 -1 395034 6246.97 9
 3 -1 -3 417414 7069.06 7
 3 3 1 406255 9147.91 4
 3 -1 -3 398299 8214.48 4
 -3 3 -1 411857 6757.2 10
 -3 1 -3 371492 5611.59 3
 3 -3 -1 356720 6008.26 7
 -3 -1 3 356763 7628.47 10
 -3 -1 3 404131 8603.71 9
 -3 3 -3 302202 6126.04 4
 -3 -3 3 434675 9781.3 9
 3 3 3 377414 7054.21 6
 -3 -3 3 398119 8973 8
 -3 -3 3 386293 7757.35 3
 3 -3 -3 330341 6352.04 7
 -3 -3 3 387259 8677.38 10
 -3 3 -3 311689 5436.11 5
 -3 3 -3 321222 6770.63 2
 3 -3 -3 364452 6288.95 1
 -3 -3 3 362093 8689.02 1
 0 -4 0 540615 6591.62 10
 0 0 -4 583772 9204.49 7
 4 0 0 526814 6315.35 7
 4 0 0 472229 7800.75 4
 0 -4 0 541996 8125.96 1
 4 0 0 583656 8366.24 6
 0 0 -4 459366 7516.95 5
 0 0 4 507032 7706.08 10
 -4 0 0 527408 7557.9 2
 -4 0 0 471714 6916.29 9
 0 4 0 474300 6987.66 4
 0 -4 0 503076 6390.05 8
 0 4 0 493912 5553.49 2
 0 0 4 460961 4211.23 6
 0 -4 0 542422 8832.55 3
 0 -4 0 542107 6674.54 9
 -4 0 0 484762 7144.82 10
 0 0 4 498487 7787.06 9
 0 4 0 409068 3255.27 5
 -4 2 2 432895 5693.56 8
 2 -4 2 427498 6285.72 9
 2 -2 4 410373 6295.34 10
 4 2 -2 377304 7910.49 6
 2 -2 4 387382 6122.46 9
 -2 -2 -4 407814 5803.36 3
 4 2 -2 431315 8760.45 7
 -2 2 4 394714 8212.41 2
 2 2 -4 373717 8246.34 5
 -4 2 2 403956 6712.49 9
 2 -2 4 406736 5516.07 1
 -2 2 4 517155 9129.3 8
 -4 -2 -2 405813 6095.44 9
 -4 -2 -2 422541 6639.2 10
 -2 2 4 419989 5957.65 9
 4 2 -2 352287 9964.82 4
 2 2 -4 564489 11268.2 7
 -2 4 2 311438 5823.18 9
 2 -2 4 379888 6803.7 6
 4 -2 2 416890 7425.86 6
 -4 -2 -2 421921 5519.71 5
 -4 2 2 444294 4785.93 3
 -2 -2 -4 438846 7331.63 5
 -4 -2 -2 377319 6234.17 3
 -4 2 2 215036 5224.39 10
 2 -4 2 360518 6137.45 1
 2 -4 2 446789 6417.27 10
 2 -2 4 407340 7027.24 8
 4 -2 2 414092 6390.21 1
 -2 2 4 456503 6224.94 10
 2 4 -2 332366 8282.72 4
 -2 -4 -2 416220 10805.3 1
 -4 2 2 443687 8134.08 2
 -2 4 2 439104 6347.31 10
 2 -4 2 395879 7667.89 6
 2 4 -2 540848 9047.34 5
 -2 4 2 378573 6528.07 2
 0 -2 4 214930 6043.84 10
 -4 0 -2 266977 4656.99 3
 0 -4 2 378580 7888.11 8
 0 -4 -2 314433 4767.29 10
 -4 -2 0 333224 6489.97 9
 4 0 2 206533 3936.58 7
 -4 0 2 272488 6231.92 2
 2 -4 0 332569 4961.32 9
 0 -4 2 330867 6350.93 1
 0 -2 4 339883 6260.74 8
 -2 4 0 311685 4091 5
 -4 0 -2 300049 4766.64 5
 -4 0 2 298436 6324.02 9
 0 2 -4 281699 5524.77 5
 -4 -2 0 312401 5921.4 8
 -4 0 -2 342207 5928.91 10
 -2 0 -4 305752 5071.09 3
 -4 0 2 317384 6366.87 8
 2 0 4 334338 4643.78 10
 0 -4 2 331562 6012.85 9
 2 0 -4 281793 8562.84 5
 -4 2 0 279402 5437.76 9
 -4 -2 0 305067 5514 3
 2 0 -4 325813 7162.52 7
 -4 -2 0 349387 6803.12 10
 4 2 0 378074 6293 7
 -2 -4 0 263360 5869.42 3
 2 0 4 325775 5322.35 6
 0 -2 4 310076 6122.25 9
 0 4 -2 314761 4690.59 5
 0 2 4 374752 5476.79 8
 2 0 -4 276411 7598.43 4
 0 -4 2 330255 5958.94 10
 -4 0 2 318771 5215.68 3
 0 -2 -4 247171 7147.03 5
 2 -4 0 146157 2926.97 8
 -4 0 -2 304457 5353.06 9
 0 2 -4 321166 8735.08 4
 2 -4 0 285571 6497.2 7
 0 -4 -2 272505 5900.2 7
 -2 0 4 312417 6010.33 3
 -4 0 -2 326712 6208.72 2
 0 -2 4 311415 5311.69 1
 2 -4 0 340916 5100.44 10
 4 -2 0 276322 5355.24 7
 4 0 -2 349529 6767.45 6
 0 4 -2 301790 6738.39 4
 0 -2 4 281165 5355.21 6
 -2 -4 0 325933 5705.52 8
 0 -4 -2 251798 2888.07 3
 0 -2 -4 299334 5066.94 7
 4 0 2 343296 6350.93 6
 4 0 -2 323474 6408 7
 -2 -4 0 460364 9865.84 9
 -2 4 0 316740 5949.51 2
 4 -2 0 353770 6160.79 1
 2 0 4 296765 3386.95 1
 -4 0 2 323038 6587.56 10
 4 2 0 341472 7391.48 6
 -4 2 0 323123 6011.66 10
 -2 -4 0 283563 7732.68 1
 -4 2 0 292945 5994.77 2
 4 0 -2 255931 7464.3 4
 -2 0 -4 279119 4973.13 5
 -2 0 4 339980 7943.03 8
 2 0 4 361915 5787.3 8
 2 -4 0 303650 5609.62 1
 -2 0 -4 260332 5921.64 7
 2 -4 0 339366 7105.71 6
 2 0 4 328454 4496.25 9
 0 -4 -2 188276 3477.43 9
 -4 2 0 260453 4267.79 3
 -4 -2 0 263278 4804.17 2
 -2 -4 0 397329 8698.66 10
 4 -2 0 363111 6866.37 6
 -2 -4 2 413722 8746.13 10
 -2 -2 4 436125 9242.51 10
 2 2 4 336342 5421.67 6
 -4 -2 2 331325 8307.31 9
 -2 4 -2 421795 5689.09 5
 4 2 2 463473 7973.36 6
 -4 2 -2 402014 6697.39 9
 -2 -2 4 400389 8722.91 8
 -4 -2 2 319482 6995.1 2
 4 -2 -2 548078 8163.87 1
 -2 -4 2 495274 9983.84 9
 -2 -2 4 492756 9144.32 1
 -4 2 -2 371078 5408.42 5
 -2 -2 4 384642 7116.45 3
 -2 -4 2 337717 7853.5 1
 -2 -2 4 521804 10398.7 9
 -4 -2 2 359084 7193.66 3
 2 -4 -2 477931 8037.71 7
 -4 -2 2 322871 7418.24 8
 -2 -4 2 512338 10233.2 8
 -4 -2 2 313828 8598.62 10
 -2 2 -4 351450 5902.97 5
 -2 4 -2 390668 7106.46 2
 2 -4 -2 503047 10052 6
 2 4 2 397386 7446.54 4
 -4 2 -2 389966 7485.71 2
 4 -2 -2 403759 6925.31 7
 2 -2 -4 401574 7013.53 7
 -2 4 -2 398555 7155.47 4
 2 -2 -4 348265 8287.08 5
 -2 -4 2 527368 9531.62 3
 -2 2 -4 404610 7735.09 2
 2 -4 -2 398710 6756.96 1
 -2 2 -4 461365 8444.97 4
 -4 2 -2 439291 7336.78 10
 4 -2 -2 516096 8580.65 6
 4 -4 4 245044 5725.01 1
 4 -4 4 262265 5701.22 9
 -4 -4 -4 265478 5734.01 3
 4 -4 4 284980 6455.38 8
 4 4 -4 233392 8277.57 4
 4 -4 4 266774 5844.64 10
 4 2 -4 115520 4352.79 6
 4 2 -4 270014 7485.58 7
 4 -4 2 199228 5974.57 6
 4 -2 4 273728 5747.41 8
 -4 -2 -4 203506 4945.44 5
 4 -4 2 251191 5206.38 10
 2 4 -4 253584 7549.88 7
 2 -4 4 239183 5285.89 9
 -4 -4 -2 250148 5480.59 3
 4 -4 2 224800 5345.59 1
 -4 2 4 232930 5812.13 9
 -4 2 4 248573 6065.6 10
 2 -4 4 220862 5160.68 1
 4 -4 2 245281 5067.76 9
 4 2 -4 236786 8123.46 4
 2 -4 4 253385 5512.59 10
 -4 2 4 196157 6235.52 2
 4 -2 4 223174 4680.42 1
 4 -2 4 244104 5164.58 10
 2 -4 4 294180 6585.05 8
 4 4 -2 226570 7876.51 4
 -4 4 2 213053 5397.46 9
 2 4 -4 201028 7386.92 4
 4 -4 2 185952 5077.26 8
 -4 2 4 225282 5541.53 8
 4 -2 4 237453 5033.49 9
 -4 -4 -2 214826 8012.35 1
 4 4 -2 265054 7676.1 7
 -4 4 2 257607 5880 10
 2 -4 4 210749 6031.01 6
 -4 4 2 219357 5779.67 2
 2 4 -4 205578 6003.77 5
 4 -2 4 212720 5595.86 6
 -4 -2 -4 223574 4801.56 3
 -2 -4 -4 174307 3875.43 3
 -4 4 0 271244 6436.91 9
 4 0 4 379375 6004.75 10
 -4 -4 0 347751 7085.99 8
 0 -4 4 335835 6980.24 10
 4 0 -4 307983 8912.6 4
 4 0 4 339338 6671.33 6
 -4 0 4 349969 6771.81 3
 0 4 4 356012 6375.82 4
 4 -4 0 350835 7386.97 7
 -4 -4 0 293031 7478.18 9
 -4 0 4 377436 8546.23 8
 0 -4 4 346911 7059.23 9
 4 0 4 370391 5777.21 9
 4 -4 0 352877 6456.62 1
 -4 0 -4 381717 8435.74 2
 -4 -4 0 341560 6882.05 3
 4 4 0 359105 10278.4 4
 0 4 -4 281987 8167.41 4
 4 0 -4 257368 7213.27 7
 -4 4 0 345825 5386.09 5
 0 4 -4 300284 6174 5
 -4 4 0 350546 7112.53 2
 4 4 0 506588 9958.35 7
 0 -4 -4 160515 4517.71 7
 -4 0 4 293432 7707.44 2
 4 4 0 402714 9772.6 6
 -4 0 -4 333813 5975.29 3
 0 -4 4 329243 6974.27 1
 -4 -4 0 401225 10263.3 1
 -4 -4 0 326355 8079.76 10
 4 0 4 389796 5823.33 1
 -2 4 -4 212915 6156.56 2
 4 2 4 244646 5906.64 6
 -2 -4 4 206323 6219.18 10
 -2 4 -4 219689 4861.46 5
 -4 2 -4 222480 4959.92 5
 -4 -2 4 250212 7251.81 8
 -4 -4 2 214982 7567.61 1
 -4 -4 2 288796 8238.33 9
 -2 -4 4 245297 7105.36 8
 -4 4 -2 226926 5900.77 2
 -4 -2 4 238647 6021.99 3
 -4 -2 4 270880 7753.96 9
 -4 -4 2 250772 7281.9 10
 -4 -2 4 280297 7488.45 2
 -2 -4 4 248038 6090.43 3
 4 -4 -2 263646 6017.45 1
 4 4 2 273113 7706.1 6
 -4 -2 4 232724 6849.64 10
 4 -4 -2 270930 7625.02 6
 -2 -4 4 213855 6341.86 1
 2 4 4 176194 4671.64 6
 4 -2 -4 291256 6538.12 1
 -4 4 -2 195117 4125.56 5
 -4 2 -4 234309 6446.96 2
 -4 -4 2 228493 6518.47 3
 4 -4 -2 190049 5177.41 7
 2 -4 -4 226762 5616.21 7
 -2 4 -4 230178 6803.66 4
 4 -2 -4 236392 6126.16 7
 -4 2 -4 218938 4963.38 3
 -2 -4 4 236092 6964.16 9
 4 4 4 181403 5835.43 6
 -4 -4 4 318764 8295.33 9
 -4 -4 4 272246 7453.29 8
 -4 -4 4 257158 6326.07 3
 -4 -4 4 266105 7212.84 10
 -4 4 -4 233949 6607.73 2
 -4 -4 4 276613 7779.38 1
 4 -4 -4 243139 6448.26 7
 1 1 -5 238049 6208.94 5
 -1 -5 -1 317479 7678.79 10
 -5 1 1 308466 6927.42 10
 -5 -1 -1 327075 6662.73 10
 -5 -1 -1 324473 5835.49 3
 -1 1 5 353853 6954.48 9
 -1 1 5 335103 6279.14 10
 5 1 -1 336199 7332.11 6
 1 -1 5 374604 6728.97 8
 -1 -5 -1 317053 8123.59 9
 -5 -1 -1 319751 5739.09 5
 1 -5 1 322999 5641.81 9
 -1 -5 -1 366836 5933.54 3
 1 -5 1 296349 5993.28 1
 -5 1 1 338389 5409.34 3
 5 1 -1 311317 8314.99 4
 1 -5 1 197381 6574.33 8
 1 1 -5 315033 8982.93 4
 -1 1 5 316994 6846.95 8
 -1 -1 -5 154692 4052.88 7
 1 -1 5 369730 6704.54 9
 -5 -1 -1 258021 5989.45 9
 -5 1 1 277614 6404.71 9
 -1 -1 -5 338556 7255.58 5
 1 5 -1 326525 7549.79 4
 -5 1 1 350987 7564.66 2
 5 1 -1 366584 7029.73 7
 -5 -1 -1 345400 7005.42 2
 1 -5 1 336243 5872.33 10
 1 1 -5 382612 9405.55 7
 -1 5 1 322260 6516.32 4
 1 -1 5 352722 6535.04 10
 5 -1 1 346039 7279.4 6
 1 -5 1 340140 8133.39 6
 1 -1 5 307165 5346.78 6
 -5 1 -1 313895 5348.37 3
 5 -1 -1 388774 7877.74 6
 1 -5 -1 353487 5398.11 10
 -1 -5 1 270928 7084.49 8
 -1 -1 5 364387 8240.75 10
 -1 -5 1 257431 6473.51 9
 -5 1 -1 338160 7130.57 2
 -5 -1 1 348113 7416.46 2
 -1 1 -5 283691 6200.88 5
 -1 -1 5 433206 9422.9 9
 -5 -1 1 267910 6879.41 9
 5 -1 -1 322908 6313.03 7
 -1 5 -1 318094 4361.52 5
 -1 -5 1 399646 8841.61 3
 1 1 5 358884 6317.04 8
 -1 -5 1 305732 7441.18 1
 1 -5 -1 337547 5269.46 9
 -1 -5 1 289269 6914.43 10
 -5 1 -1 290267 5477.19 5
 -1 5 -1 309219 6732.39 4
 -5 1 -1 304432 5985.22 9
 -5 -1 1 326313 6722.34 8
 -1 -1 5 250944 6128.24 8
 -5 -1 1 311892 5948.65 3
 -5 -1 1 277311 7309.07 10
 -1 5 -1 342962 6299.61 2
 5 1 1 390633 7968.46 6
 1 5 1 274294 6298.12 4
 -5 1 -1 353260 6744.3 10
 1 -1 -5 363889 7283.08 7
 -1 1 -5 483409 11217.2 7
 -5 3 3 254192 7051.38 2
 3 -5 3 257978 5649.16 10
 5 -3 3 243196 5324.46 10
 -5 -3 -3 234554 5566.53 3
 3 -5 3 249323 5480.14 9
 3 3 -5 269848 9064.86 4
 -3 3 5 221946 6437.32 2
 3 3 -5 237955 6718.54 5
 5 3 -3 293163 7770.92 7
 -5 3 3 249891 6245.83 9
 -3 -5 -3 232275 8987.59 1
 3 -3 5 260078 5832.76 10
 3 -3 5 249547 5601.58 9
 5 -3 3 250484 5250.6 9
 5 3 -3 230373 8176 4
 3 -5 3 278795 6612.97 8
 3 -3 5 268492 6462.56 8
 3 5 -3 200235 7381.33 4
 3 -5 3 224406 5522.65 1
 5 -3 3 226540 5154.91 1
 -5 3 3 272517 6726.92 10
 3 -5 3 210247 6640.52 6
 5 3 -3 268337 7178.47 6
 3 3 -5 316976 8525.04 7
 3 5 -3 274664 7478.73 7
 3 -3 5 248784 5370.12 1
 3 -3 5 229247 6070.68 6
 -3 -3 -5 220469 5187.35 3
 -3 5 3 224296 5798.56 2
 5 -3 3 223702 6118.33 6
 -5 -1 -3 258055 5277.52 3
 5 1 -3 166081 5295.26 6
 -5 -1 -3 284837 6241.17 10
 -5 1 3 261752 6571.08 9
 -5 1 3 251500 6914.48 2
 -5 -3 -1 313342 6959.2 10
 -3 1 5 278417 6738.84 10
 5 3 -1 263698 7475.89 6
 -5 1 3 271269 4947.18 3
 3 -1 5 284456 5481.16 9
 3 -1 5 305087 5696.18 10
 1 -5 3 307874 6345.71 10
 3 -5 1 303492 5696.31 10
 3 1 -5 307810 7857.18 5
 1 5 -3 236029 5856.24 5
 -1 3 5 289033 6902.86 2
 5 -1 3 272099 6330.31 6
 -5 -3 -1 309572 6358.35 3
 -3 1 5 262526 6463.24 9
 5 -3 1 267683 5889.72 1
 -3 1 5 254383 7422.06 2
 -5 -3 -1 148292 3915.26 5
 3 -5 1 310998 5620.43 9
 -3 5 1 281532 4625.15 5
 -5 1 3 283089 6505.18 8
 5 1 -3 226991 7913.84 4
 3 1 -5 229460 8506.92 4
 -5 -1 -3 233531 5310.79 9
 1 -5 3 295919 7581.89 8
 -5 -1 -3 183779 5671.7 2
 1 -5 3 325570 6541.68 9
 3 -1 5 303673 6453.67 8
 3 5 -1 211027 7012.97 4
 -3 1 5 339715 8290.62 8
 1 3 -5 206575 5701.44 5
 1 5 -3 223685 7179.36 4
 1 -3 5 307098 6611.62 8
 -5 1 3 295677 7009.04 10
 1 -5 3 262200 6613.61 1
 1 -3 5 298047 6185.39 1
 -1 -3 -5 158729 6256.57 5
 3 1 -5 258992 7553.46 7
 5 3 -1 301877 7497.21 7
 5 3 -1 275631 8816.91 4
 -3 5 1 265643 6006.26 2
 1 3 -5 392975 9807.03 7
 3 5 -1 237111 7412.68 7
 1 -5 3 261963 7070.69 6
 -1 -5 -3 258956 9554.57 1
 1 -3 5 258215 6338.02 6
 -3 -1 -5 274339 5480.77 3
 -5 3 1 265756 6757.29 2
 3 -5 1 296866 7492.34 6
 3 -5 1 286437 5979.99 1
 -1 5 3 253891 5546.6 2
 3 -1 5 268920 5961.75 6
 5 -3 1 290713 6941.32 6
 -5 -3 -1 269102 6313.17 9
 3 1 5 289396 5829.36 6
 -5 1 -3 299198 6431.59 10
 5 -1 -3 139702 5124.14 6
 -5 3 -1 253565 5858.84 9
 3 -1 -5 281166 7944.17 5
 -3 -1 5 307975 6631.56 3
 -5 3 -1 260982 6218.23 10
 -5 3 -1 257664 4876.54 5
 -3 -5 1 281941 7146.35 3
 1 -5 -3 356928 8790.76 1
 -3 -5 1 395589 9988.83 9
 -5 -1 3 229182 6969.2 10
 -5 -3 1 246533 7370.63 10
 1 -3 -5 219113 6933.78 5
 -5 -1 3 231409 6740.8 2
 -5 -3 1 203732 5921.07 3
 -5 -1 3 248597 6816.56 8
 3 -5 -1 192158 4411.47 10
 -3 -1 5 314611 8286.18 9
 3 -1 -5 298981 8651.56 4
 -1 3 -5 247505 5856.32 5
 -5 1 -3 274897 5893.28 9
 5 3 1 302932 8028.01 6
 -1 5 -3 274038 5392.94 5
 5 -3 -1 326243 6744.54 1
 -1 -3 5 229982 6361.28 9
 -1 -5 3 227737 6145.57 9
 -3 5 -1 263248 4470.38 5
 -5 1 -3 257843 4917.86 5
 -1 -5 3 312578 7460.38 3
 1 3 5 329553 7165.66 2
 3 -5 -1 192312 4266.27 9
 -3 1 -5 304788 8083.44 2
 5 -1 -3 272306 8133.23 4
 -5 -3 1 240263 6501.38 8
 -1 -5 3 222082 6165.13 10
 -3 -5 1 201540 5989.09 8
 -1 5 -3 251980 6289.33 2
 -3 -1 5 293353 7482.07 8
 5 3 1 247135 8021.34 4
 -1 -3 5 249569 6635.63 8
 1 3 5 342220 5982.06 8
 3 1 5 324828 6262.74 8
 -5 -3 1 249755 7100.82 9
 -1 3 -5 289549 9044.22 4
 3 -5 -1 284294 6773.79 7
 1 -5 -3 291656 6941.65 7
 3 5 1 230410 7321.89 4
 -3 -5 1 284622 8043.81 1
 5 -3 -1 245757 5913.41 7
 -3 5 -1 235871 5952.59 2
 1 -3 -5 277035 6166.87 7
 -1 -3 5 257461 6834.85 1
 -1 5 -3 286149 7460.96 4
 5 -1 -3 271874 6723.44 7
 -3 1 -5 248661 5527.21 5
 3 -1 -5 278136 7077.83 7
 -5 3 -1 255458 6590.37 2
 1 5 3 233844 5854.64 4
 -3 5 -1 265835 6271.3 4
 -5 -1 3 231889 6742.96 9
 -1 -3 5 235216 6307.96 10
 -1 3 -5 393864 10007.9 7
 3 -5 -1 334249 8896.88 6
 -5 3 -1 278684 5382.7 3
 -5 1 -3 219975 5177.6 3
 -3 -1 5 258998 7253.4 10
 -1 -5 3 193750 6179.14 1
 -3 3 -5 245666 6907.3 2
 -3 -3 5 286382 7991.65 9
 -5 -3 3 274172 7867.18 10
 3 5 3 201768 6765.82 6
 -3 -5 3 262330 7266.29 10
 -3 -3 5 255037 5999.39 3
 -3 -3 5 264139 7126.07 10
 -3 5 -3 243695 5132.56 5
 5 -3 -3 281526 7001.53 1
 5 3 3 257847 6808.57 6
 -5 -3 3 257215 7505.48 9
 -3 -5 3 299166 8298.69 9
 -5 -3 3 250544 6941.74 8
 -3 -5 3 309559 8193.25 8
 -5 3 -3 226096 5253.31 5
 -3 -3 5 237580 6883.19 8
 -3 5 -3 226709 6104.08 2
 -5 3 -3 222939 6344.57 2
 -3 -5 3 196007 6487.95 1
 3 -5 -3 250412 6596.31 7
 5 -3 -3 213438 6016.19 7
 3 -5 -3 276986 6957.44 1
 3 -3 -5 238784 6365.3 7
 -3 5 -3 231501 6313.8 4
 -3 -5 3 287359 6910.95 3
 -5 -3 3 264429 6677.91 3
 3 3 5 300585 6105.35 8
 -3 3 -5 238515 5405.42 5
 -5 3 -3 198911 5120.57 3
 -5 5 5 153658 5808.22 2
 5 -5 5 149111 4576.52 10
 5 -5 5 132423 4530.59 1
 5 -5 5 148450 4565.11 9
 5 5 -5 135303 5911.23 4
 5 -5 5 161037 5338.9 8
 5 5 -5 147263 5433.23 7
 5 -5 5 131377 5114.59 6
 -3 5 5 154709 5505.42 2
 -5 3 5 185923 6650.91 2
 5 -5 3 167376 4966.62 1
 3 -5 5 194299 5587.76 10
 5 -3 5 171514 4942.75 10
 5 -5 3 180972 4946.51 10
 -5 -5 -3 197843 5468.97 3
 5 5 -3 214728 6486.74 6
 3 -5 5 197981 5779.69 9
 5 -3 5 171754 4856.78 9
 5 -5 3 184709 4774.05 9
 3 -5 5 188356 5448.01 1
 5 5 -3 189004 7073.71 4
 3 5 -5 182804 7194.85 4
 5 -3 5 203390 5489.2 8
 5 3 -5 198191 6549.52 7
 5 5 -3 184968 6426.88 7
 3 5 -5 225328 7011.45 7
 5 3 -5 166789 7060.85 4
 3 -5 5 179551 6057.1 6
 3 -5 5 188851 5919.99 8
 -5 5 3 157184 5534.99 2
 5 -5 3 178062 5942.7 6
 5 -3 5 160406 5297.8 6
 -5 -3 -5 183539 5051.93 3
 -5 5 1 211717 5859.93 10
 -5 1 5 183725 6235.89 10
 -5 -5 -1 201584 5578.32 3
 5 -5 1 198359 5415.6 1
 1 5 -5 161430 5383.08 5
 5 -5 1 223703 5220.59 10
 -5 5 1 197864 5457.82 9
 1 -5 5 215150 6430.82 1
 -5 1 5 183470 6052.76 9
 -5 -1 -5 225374 5881.4 5
 1 -5 5 220484 6214.51 9
 5 -1 5 223793 5222.24 9
 -5 5 1 206586 4608.34 5
 5 -5 1 222199 5020.03 9
 -5 1 5 184108 6057.3 8
 5 5 -1 276184 7944.45 6
 5 -1 5 232686 5834.39 8
 5 -5 1 190905 6040.04 7
 1 -5 5 222240 6159.2 10
 5 1 -5 196280 6492.43 7
 -5 1 5 172606 6112.89 2
 -5 5 1 203320 5921.33 2
 1 5 -5 242088 7508.75 7
 5 -1 5 185710 4867.89 10
 5 1 -5 170494 7368.62 4
 -5 -1 -5 191740 4989.29 3
 5 -5 1 212421 6680.04 6
 5 1 5 193416 5783.63 6
 -5 -1 5 208113 6762.96 10
 -5 -5 1 198038 7103.97 10
 5 5 1 221012 7554.58 6
 -5 -5 1 165336 5404.73 3
 -5 -1 5 234468 6092.77 3
 -1 5 -5 195561 5484.17 5
 -5 -1 5 194296 6517.42 9
 -5 -5 1 207966 7027.87 9
 -5 1 -5 215764 5349.1 5
 -1 -5 5 166758 5553.78 9
 -1 -5 5 178912 5416.16 3
 -5 -5 1 226587 7595.5 1
 5 -5 -1 247014 6309.62 1
 -5 -1 5 227644 6688.76 8
 -5 1 -5 233256 7561.67 2
 -1 -5 5 203520 6776.13 8
 5 -5 -1 211514 6204.86 7
 -1 5 -5 178082 7168.16 4
 1 -5 -5 124011 5042.14 7
 -5 5 -1 188775 5637.57 2
 5 -1 -5 195155 6348.57 7
 -5 -1 5 223155 6881.31 2
 -1 -5 5 145145 5710.39 1
 -1 -5 5 159436 5533.65 10
 -5 1 -5 195710 4965.4 3
 5 -5 -1 220929 8080.95 6
 5 5 3 58967 4166.48 6
 -5 -3 5 205366 6634.37 10
 -5 -5 3 195865 6161.27 10
 -5 -5 3 215107 6022.46 3
 -5 -3 5 207986 5714.34 3
 -3 5 -5 160481 5005.57 5
 -5 -3 5 194976 6222.81 2
 -5 -5 3 221634 7009.57 9
 -3 -5 5 167667 5094.21 3
 -5 3 -5 175531 4721.43 5
 -3 -5 5 202161 6543.59 9
 -5 5 -3 175319 4552.32 5
 -3 -5 5 180080 5887.2 10
 -5 -5 3 178904 6433.33 1
 -5 -5 3 192183 6214.88 8
 -3 5 -5 180497 6037.25 2
 -3 -5 5 156331 6409.83 1
 -5 -3 5 189456 5877.35 8
 -5 3 -5 178866 6222.17 2
 -5 -3 5 191374 6290.01 9
 5 -5 -3 191782 6311.31 7
 3 -5 -5 170523 5512.52 7
 5 -3 -5 187419 6069.3 7
 -5 5 -3 137749 5131.71 4
 -5 5 -3 172395 5584.8 2
 5 -5 -3 230377 6901.75 1
 -5 -5 5 132574 4780.84 10
 -5 5 -5 131410 4165.69 5
 -5 -5 5 145539 4976.59 8
 -5 5 -5 137644 5250.91 2
 5 -5 -5 134523 5176.02 7
 -6 0 0 214681 5950.13 9
 6 0 0 266459 7051.71 6
 0 0 6 310971 7888.89 10
 0 -6 0 238716 6149.06 10
 0 0 -6 195105 6028.8 5
 0 -6 0 182309 5750.53 3
 0 0 6 341185 8866.1 9
 0 -6 0 181222 5288.33 9
 0 -6 0 245915 6889.16 1
 -6 0 0 238032 6598.77 10
 0 0 6 240449 5844.46 8
 6 0 0 219570 5676.96 7
 0 6 0 208895 5813.74 4
 0 0 -6 150709 5629.41 7
 -6 0 0 225395 5273.43 3
 -6 -2 -2 205424 5247.95 3
 6 2 -2 177865 6079.6 6
 6 -2 2 210704 5223.18 1
 2 2 -6 171003 5552.44 5
 -2 -2 -6 212954 7167.1 5
 -6 -2 -2 163332 5029.04 9
 -6 2 2 194976 5656.47 9
 -2 2 6 171485 6268.25 2
 2 2 -6 226922 8616.75 4
 -6 -2 -2 210736 5105.21 5
 2 -6 2 190744 5099.81 9
 2 -2 6 219811 5960.39 9
 2 -6 2 196001 5386.02 1
 6 2 -2 163813 6950.84 4
 -6 2 2 216859 6168.42 10
 2 -2 6 223554 5920.63 10
 2 -2 6 246960 6150.15 8
 -6 -2 -2 223502 6200.53 10
 2 -6 2 183152 4928.85 10
 2 6 -2 151432 6033.35 4
 6 2 -2 181288 6027.58 7
 -2 -6 -2 217384 8591.92 1
 2 2 -6 256015 8100.02 7
 -2 6 2 187672 5683.04 4
 2 -6 2 196606 6869.49 6
 2 -2 6 166597 5052.94 6
 6 -2 2 198843 5930.83 6
 -6 2 2 214339 6721.71 2
 6 -2 0 317184 7874.38 6
 -6 0 -2 278277 5669.33 3
 6 0 2 335295 7652.35 6
 -6 0 -2 321732 7156.7 10
 -6 0 2 303784 8407.76 2
 0 -2 -6 269926 8329.86 5
 -6 0 2 299801 7559.28 10
 -6 -2 0 309814 7678.08 10
 0 -6 -2 362089 9727.22 1
 -6 0 2 319855 6506.96 3
 -6 -2 0 306346 6759.9 3
 -2 0 6 324594 7858.65 10
 -2 -6 0 217533 7467.78 10
 0 -6 2 309128 6990.05 10
 2 0 -6 292837 7947.2 5
 2 -6 0 332636 6247.05 10
 -2 -6 0 256968 6725.77 3
 0 2 -6 240927 6246.66 5
 -6 0 -2 292450 6464.93 9
 -6 2 0 268582 6438.48 9
 6 0 -2 310777 8095.59 6
 -2 0 -6 304125 7128.31 5
 6 -2 0 345194 7064.22 1
 -6 -2 0 302478 7387.24 9
 -2 0 6 378570 9041.23 9
 6 2 0 291618 7760.37 6
 0 -2 6 256469 6922.11 9
 0 -6 2 407427 9831.48 3
 0 -6 2 315798 7086.55 9
 -2 0 6 274872 5934.09 3
 -6 0 -2 305580 5862.43 5
 2 -6 0 249560 5311.46 9
 -6 0 2 282599 7196.74 9
 -6 2 0 326113 6108.45 5
 -6 0 2 312152 7079.18 8
 6 0 -2 244803 8414.51 4
 0 6 -2 262868 6324.81 2
 6 2 0 283947 8485.14 4
 2 -6 0 307354 6773.08 1
 -2 0 6 267209 7207.79 8
 0 -2 6 298886 6901.87 8
 0 2 6 312452 7036.22 8
 0 -6 2 291750 7415.44 1
 -2 6 0 281662 6311.12 2
 6 -2 0 271833 6324.26 7
 2 6 0 243370 7299.31 4
 0 6 -2 268000 7754.93 4
 6 0 -2 307831 7314.22 7
 2 0 -6 292680 7930.13 7
 0 6 2 276128 6643.16 4
 0 -2 6 253645 6803.43 10
 -2 6 0 281675 6766.17 4
 0 2 -6 476241 12056.6 7
 -6 2 0 299468 7074.64 10
 -6 2 0 300717 7404.93 2
 2 -6 0 358798 9901.81 6
 -2 -6 0 238435 7755.78 1
 -6 2 -2 195891 5470.18 10
 6 2 2 238831 7074.58 6
 -6 -2 2 141850 5661.04 2
 -6 -2 2 171581 6160.83 10
 -2 -2 6 210492 6650.33 10
 -2 -6 2 196899 6577.22 10
 6 -2 -2 246142 6741.05 1
 2 -2 -6 192808 7051.42 5
 -2 -6 2 230901 7420.74 9
 -6 2 -2 176134 5038.3 9
 -2 2 -6 200755 5445.16 5
 -6 -2 2 166535 5978.88 9
 -2 -2 6 248500 7542.08 9
 -6 2 -2 183822 4501.21 5
 -2 -2 6 148571 4609.77 3
 2 -6 -2 216034 6317.31 1
 -6 -2 2 146290 5621.2 8
 -6 -2 2 171193 5297.07 3
 -2 -6 2 223303 7129.45 8
 -2 -2 6 155007 5625.83 8
 -2 6 -2 182659 5379.44 2
 2 2 6 229516 5582.98 8
 -2 -6 2 240087 6854.4 3
 2 -6 -2 199138 5998.02 7
 2 6 2 175342 6108.59 4
 6 -2 -2 197791 5779.18 7
 -6 2 -2 188203 6202.39 2
 2 -2 -6 215261 6327.55 7
 -2 6 -2 196035 5892.76 4
 -2 2 -6 26489.4 3154.22 7
 -2 -6 2 148586 5691.55 1
 -6 2 -2 195622 4750.66 3
 6 -2 -2 212409 7019.54 6
 4 4 -6 79813.6 3817.21 5
 4 -6 4 127455 4272.65 10
 6 -4 4 134415 4333.26 1
 4 -6 4 139257 4461.22 9
 6 -4 4 133840 4119.19 9
 6 4 -4 125967 5753.99 4
 4 4 -6 138827 6273.29 4
 4 6 -4 121269 5635.11 4
 4 -4 6 164872 5378.31 8
 6 4 -4 59033.4 3398.12 6
 6 -4 4 139668 4541.96 8
 6 -4 4 139436 4238.42 10
 4 4 -6 99638.8 4581.58 7
 4 -6 4 134343 5318.8 6
 -4 6 4 116841 4735.03 2
 4 -4 6 64949.5 3598.99 6
 6 -4 4 119682 4644.17 6
 -6 4 4 146623 5781.95 2
 -6 4 2 243296 6498.49 10
 -6 2 4 225393 7484.57 2
 -6 2 4 240444 7196.83 10
 6 4 -2 235903 7335.25 6
 4 2 -6 215475 6492.6 5
 2 -4 6 253616 6703.77 10
 4 -6 2 215431 5234.3 9
 2 4 -6 174452 5539.83 5
 -4 2 6 187555 6426.96 2
 6 -2 4 205123 5229.83 10
 6 -4 2 229256 5311.26 10
 4 -6 2 230254 5457.38 10
 -6 2 4 221007 6576.74 9
 -4 -2 -6 231962 7414.93 5
 2 -6 4 262910 7155.09 1
 2 -4 6 250978 6718.22 9
 2 -6 4 260563 6537.12 9
 6 -2 4 225356 5203.17 9
 6 -4 2 218826 5188.34 9
 -4 -6 -2 245918 9456.02 1
 6 2 -4 198563 8051.8 4
 4 2 -6 230127 8719.42 4
 2 -6 4 231405 6133.08 10
 6 -4 2 211245 5307.39 1
 6 4 -2 213263 7810.03 4
 2 -6 4 228735 7232.61 8
 2 -4 6 260260 6781.13 8
 2 4 -6 254829 9031.21 4
 4 6 -2 193977 7293.81 4
 4 -2 6 253856 6295.52 8
 2 6 -4 160118 6712.55 4
 6 -4 2 202392 5257.61 8
 -6 4 2 219716 5976.22 9
 4 -6 2 219748 5784.54 1
 6 2 -4 217270 6849.13 7
 6 4 -2 269067 7699.21 7
 4 2 -6 268202 7663.58 7
 2 4 -6 293759 8547.04 7
 -4 6 2 193240 5632.25 2
 4 6 -2 215294 6779.36 7
 2 6 -4 202404 7127.49 7
 -2 6 4 229088 6576.58 4
 2 -6 4 202169 6908.36 6
 -6 4 2 208788 6527.11 2
 -4 -2 -6 205216 5391.76 3
 4 -6 2 226596 7176.51 6
 6 -4 2 214978 6374.77 6
 6 -2 4 207718 5980.39 6
 6 -2 4 216431 5195.4 1
 -6 -2 -4 227748 5556.79 3
 6 0 4 165721 5381.44 6
 -6 0 -4 168813 5386.91 10
 6 4 0 177209 6494.08 6
 -6 -4 0 162049 5173.07 3
 -4 0 6 174421 6208.92 10
 0 -6 4 167204 5419.76 10
 -4 -6 0 140466 4930.58 3
 -6 0 -4 153390 4901.98 9
 0 4 -6 136618 4883.76 5
 -6 4 0 163660 4910.62 9
 -6 4 0 173951 5258.75 10
 -6 0 4 134790 5402.56 9
 -4 0 -6 166076 5155.74 5
 -6 -4 0 151657 5794.42 9
 -4 0 6 165965 5886.24 9
 -4 0 6 163476 6519.4 2
 -6 0 -4 186213 5107.43 5
 0 -4 6 141078 5157.39 9
 0 -6 4 162890 5381.11 9
 -4 6 0 144162 3682.82 5
 0 -6 4 169007 5516.77 3
 -6 4 0 174686 4323.4 5
 -4 -6 0 128290 4899.58 8
 6 0 -4 136739 6650.48 4
 4 0 -6 163583 7332.93 4
 -6 -4 0 169837 6263.71 10
 -4 0 6 174380 5946.79 8
 6 4 0 148891 7341.44 4
 0 -6 4 192538 7095.25 8
 -6 0 -4 162154 6401.23 2
 0 -4 6 161132 5623.62 8
 -4 -6 0 191268 7306.6 1
 0 4 -6 200687 8542.6 4
 4 0 6 211126 5506.53 8
 4 6 0 147953 6539.72 4
 4 -6 0 163261 5462.4 7
 6 0 4 174807 4810.6 1
 6 -4 0 177122 5781.42 7
 0 6 -4 151045 6301.79 4
 -4 6 0 161659 5122.39 2
 -6 0 4 93866.4 4549.47 10
 6 0 -4 153674 5684.07 7
 4 0 -6 153860 5820.19 7
 -6 4 0 173571 5689.07 2
 6 -4 0 178775 5166.32 1
 -6 0 4 132489 5662.4 2
 0 6 4 117536 4550.26 4
 4 -6 0 164866 5251.27 1
 0 4 -6 240614 8078.95 7
 -4 6 0 174340 5355.21 4
 -4 0 -6 160439 4615.82 3
 4 -6 0 207840 7438.43 6
 -6 0 -4 170511 4642.59 3
 6 -4 0 184278 6365.3 6
 6 2 4 154925 5485.17 6
 6 4 2 239075 7654.75 6
 -6 -2 4 210817 6950.65 10
 -6 -4 2 206213 7039.92 10
 -4 -2 6 218540 6580.22 10
 -4 -6 2 253989 7405.85 10
 4 6 2 150784 6571.21 6
 -2 -4 6 220870 6494.06 10
 -2 -6 4 204981 6301.77 10
 -6 -2 4 231295 6117.14 3
 -6 -2 4 205292 6705.62 2
 -6 -4 2 209925 6003.91 3
 -4 -6 2 254466 6886.4 3
 -4 2 -6 214089 5514.91 5
 -6 -2 4 209028 6786.91 9
 -4 -2 6 229128 5623.05 3
 -6 -4 2 207128 6923.77 9
 -4 -2 6 255147 7492.62 9
 -4 -6 2 280096 8375 9
 -2 -6 4 219369 6110.82 3
 -2 -4 6 247918 7316.15 9
 -6 2 -4 224468 5376.13 5
 -2 -6 4 225288 7027.06 9
 -2 -4 6 183287 5195.65 3
 -6 4 -2 192950 4453.63 5
 -4 -2 6 247247 7011.88 2
 -4 2 -6 248427 7994.03 2
 -6 -4 2 194066 6186.5 8
 -4 -6 2 213523 6794 8
 -6 -2 4 228600 6747.43 8
 -2 6 -4 179954 6278.09 2
 -4 -2 6 223291 6417.94 8
 -2 -6 4 257662 7721.83 8
 -2 -4 6 209763 6235.1 8
 -6 2 -4 222977 6879.73 2
 -4 -6 2 219476 7114.21 1
 -2 6 -4 232022 5832.86 5
 4 2 6 257504 6210.02 8
 -4 6 -2 194901 5818.7 2
 4 -6 -2 217835 6473.74 7
 2 -6 -4 202768 6801.25 7
 -6 4 -2 216784 6306.68 2
 6 -4 -2 250008 6736.55 1
 6 -4 -2 249942 7080.25 7
 -2 6 -4 229208 7575.72 4
 6 -2 -4 215362 6540.35 7
 4 -2 -6 228858 6889.97 7
 -2 -6 4 178385 6258.03 1
 6 -2 -4 261093 7527.99 1
 4 -6 -2 254290 6968.2 1
 -4 6 -2 214223 6180.12 4
 -2 4 -6 134874 6575.37 7
 -6 2 -4 201691 5079.16 3
 -4 -4 6 128622 4828.35 10
 -4 -6 4 130882 4955.84 10
 -6 -4 4 142640 4780.5 3
 -4 -6 4 134996 4471.52 3
 -4 4 -6 131566 4316.04 5
 -4 -4 6 132791 4190.94 3
 -4 6 -4 128580 4133.49 5
 -4 -4 6 148844 5479.74 9
 -4 -6 4 152318 5657.62 9
 -6 4 -4 131095 4007.33 5
 -4 4 -6 136941 5578.12 2
 -6 -4 4 141486 5104.17 8
 -4 -4 6 131814 4790.27 8
 -4 6 -4 119339 4742.37 2
 -6 -4 4 152522 5734.01 10
 -6 4 -4 109388 4671.86 2
 4 -6 -4 133109 5411.15 7
 6 -4 -4 115012 4881.63 7
 -4 6 -4 84035.8 4383.11 4
 -6 -4 4 146099 5430.55 9
 -6 4 6 127549 5592.9 2
 6 6 -4 25203.1 2128.25 6
 4 -6 6 147145 5042.23 10
 6 -4 6 78320.3 3436.66 10
 6 -6 4 135964 4405.24 10
 4 -6 6 160751 5367.65 9
 6 -4 6 138722 4526.6 9
 6 -6 4 137132 4272.73 9
 6 4 -6 131683 5830.22 4
 6 6 -4 125805 5415.93 4
 4 6 -6 127770 5682.48 4
 6 -4 6 137801 4981 8
 6 -6 4 134475 4495.17 1
 6 4 -6 140599 5018.32 7
 6 6 -4 29844.2 2534.73 7
 4 6 -6 146637 5407.44 7
 -6 6 4 133021 5286.53 2
 4 -6 6 134042 5502.56 6
 6 -6 4 116211 4990.51 6
 6 -4 6 105881 4434.92 6
 -6 2 6 96778.2 4617.79 2
 6 6 -2 109748 4643.48 6
 2 -6 6 133147 5058.31 10
 6 -2 6 80893.4 3617.87 10
 -6 -6 -2 127377 4868.31 3
 2 -6 6 133498 5178.12 9
 6 -2 6 103634 3959.67 9
 6 -6 2 122008 3888.88 9
 6 2 -6 116260 5896.4 4
 2 -6 6 116451 5193.18 8
 6 6 -2 104783 5294.81 4
 2 6 -6 116272 5925.35 4
 6 -2 6 140461 4605.65 8
 6 2 -6 123205 4983.44 7
 -6 6 2 112435 4679.14 2
 2 6 -6 136162 5686.85 7
 -6 -2 -6 111740 4038.72 3
 6 -6 2 116269 5234.93 6
 6 -2 6 71559.9 3711.3 6
 6 -6 2 115747 4221.3 1
 6 6 0 198458 7030.37 6
 -6 0 6 175356 6040.58 2
 -6 -6 0 136984 4948.56 3
 0 -6 6 145240 5404.22 10
 6 -6 0 168612 4940.35 10
 0 6 -6 124576 5074.93 5
 -6 0 6 156264 5859.46 9
 -6 0 -6 184800 5629.94 5
 0 -6 6 141550 5394.47 9
 0 -6 6 138012 4824.11 3
 6 -6 0 164462 4620.93 9
 6 0 -6 132173 6765.75 4
 -6 0 6 161347 6185.46 10
 0 -6 6 163846 6281.51 8
 6 -6 0 179762 5497.79 1
 6 0 6 207796 5577.56 8
 6 -6 0 174122 5813.96 7
 -6 6 0 164093 5449.22 2
 6 0 -6 149810 5743.65 7
 -6 6 0 167367 5399.88 4
 -6 0 -6 162658 4723.1 3
 6 -6 0 174346 7292.92 6
 6 6 2 64152.7 4206.64 6
 -6 -2 6 135047 5294.21 10
 -6 -6 2 127668 5568.32 10
 -6 -6 2 125601 4585.01 3
 -6 -2 6 111262 4650.63 2
 -2 6 -6 110384 4507.85 5
 -6 -2 6 128343 5114.47 9
 -6 -6 2 106508 4919.8 9
 -6 2 -6 118450 4182.72 5
 -2 -6 6 130819 5315.22 9
 -2 -6 6 113487 4128.21 3
 -6 6 -2 110302 3656.71 5
 -2 -6 6 115291 4666.96 10
 -6 2 -6 129115 6136.17 2
 -6 -6 2 114536 4905.46 8
 -6 -2 6 106167 4255.54 8
 -2 -6 6 118037 4918.36 8
 6 2 6 128767 4530.03 8
 -6 6 -2 106649 4395.23 2
 6 -6 -2 116175 4789.66 7
 6 -2 -6 99462.1 4794.64 7
 -6 6 -2 100982 4376 4
 6 -6 -2 151360 5595.8 1
 -6 -6 4 128617 4956.17 10
 -6 -6 4 138252 4473.06 3
 -6 -4 6 137997 4309.02 3
 -4 6 -6 138088 4763.78 5
 -4 -6 6 123338 3902.73 3
 -6 4 -6 126822 4163.46 5
 -6 -4 6 124360 4736.81 9
 -6 -6 4 140628 5076.48 9
 -6 6 -4 126666 3985.85 5
 -4 -6 6 142813 5099.71 9
 -4 6 -6 137287 5446.8 2
 -6 4 -6 138296 5687.07 2
 -6 -6 4 140877 4926.1 8
 -6 -4 6 128879 4429.08 8
 -4 -6 6 134296 4687.18 8
 -6 6 -4 127952 4874.93 2
 6 -6 -4 147888 5744.71 7
 4 -6 -6 139247 5981.47 7
 6 -4 -6 136087 5400.17 7
 7 -1 1 214189 6827.24 6
 -7 1 1 210146 5402.05 3
 -7 -1 -1 214926 5610.41 3
 7 1 -1 203948 6997.56 6
 -7 1 1 231194 6738.92 10
 1 -7 1 212460 6250.12 10
 1 1 -7 178013 5896.29 5
 1 -7 1 228590 6876.25 1
 -7 1 1 217240 6230.65 9
 7 -1 1 242503 6200.1 1
 1 -7 1 143876 5117.29 9
 -7 -1 -1 208227 5687.93 5
 7 1 -1 182327 7350.69 4
 -1 1 7 165434 5944.43 8
 1 -1 7 217732 5933.75 8
 1 7 -1 185393 6530.34 4
 7 1 -1 214457 6484.05 7
 -1 7 1 206492 6053.24 4
 1 1 -7 229503 7930.18 7
 -1 -7 -1 199815 7538.62 1
 7 1 1 236865 7408.07 6
 -7 1 -1 213149 6342.4 10
 -7 -1 1 234414 7306.74 10
 -7 -1 1 208039 5795.74 3
 -1 -1 7 259975 7716.3 10
 -1 -7 1 184040 6577.27 10
 1 -1 -7 190467 7120.84 5
 1 -7 -1 250945 7749.12 1
 -1 1 -7 189150 5947.44 5
 -7 1 -1 188820 5804.53 9
 -7 -1 1 200913 6547.67 9
 -1 -7 1 228347 7068.06 3
 -1 -1 7 284475 8625.79 9
 -7 1 -1 213269 5390.02 5
 -1 -1 7 163195 5607.61 8
 1 1 7 219076 5916.5 8
 7 -1 -1 220109 6323.98 7
 -1 7 -1 200357 6185.52 4
 -7 1 -1 221243 6972.52 2
 1 -1 -7 137462 5523.25 7
 -7 -1 1 169380 6504.59 2
 -1 -7 1 168047 6255.25 1
 -7 -3 -3 167526 5137.05 3
 -7 3 3 164164 5889.89 10
 3 -3 7 181326 6054.5 10
 -3 3 7 120587 5265.05 2
 7 -3 3 158015 4674.44 10
 -7 3 3 138886 5242.01 9
 3 -3 7 190731 6148.78 9
 7 -3 3 161017 4532.64 9
 3 3 -7 174694 7551.26 4
 -3 -7 -3 186458 8781.54 1
 3 -3 7 205715 6202.4 8
 7 3 -3 126336 5194.64 6
 3 7 -3 120281 5611.19 4
 7 3 -3 156521 6027.66 7
 3 3 -7 204896 6802.93 7
 3 7 -3 89475.6 4518.37 7
 3 -7 3 152960 6149.64 6
 -7 3 3 171738 6565.64 2
 7 -3 3 156261 5404.87 6
 7 -1 3 185848 5904.97 6
 -7 3 1 198635 6036.78 10
 -7 1 3 177056 6865.03 2
 7 1 -3 100544 5108.6 6
 -7 -3 -1 207545 7053.72 10
 -7 1 3 203973 6870.82 10
 7 3 -1 169787 6270.89 6
 -7 -3 -1 205409 5890.58 3
 1 -7 3 179361 6338.38 1
 1 -3 7 164892 5824.24 10
 3 1 -7 171508 5800.54 5
 1 -7 3 197073 6015.1 10
 3 -7 1 170093 5049.04 10
 1 3 -7 144762 5065.78 5
 -7 -1 -3 152425 5129.73 9
 -7 3 1 180357 5550.96 9
 -3 -1 -7 214874 7094.83 5
 -7 -3 -1 148552 5623.43 9
 -7 1 3 183093 6155.77 9
 -1 3 7 126433 5530.66 2
 -3 1 7 197660 6795.39 2
 7 -3 1 188272 5305.52 1
 -7 -1 -3 179404 4960.45 5
 1 -3 7 166260 5927.8 9
 -7 -1 -3 194215 6137.15 10
 1 -7 3 197311 6080.09 9
 1 -7 3 211404 7409.63 3
 3 -7 1 67435.1 3155.16 9
 -7 3 1 199328 5286.96 5
 -7 1 3 184244 5786.57 8
 7 1 -3 139498 6671.46 4
 3 1 -7 154121 7443.33 4
 7 3 -1 157425 7059.21 4
 3 -7 1 180422 5480.01 1
 1 -3 7 190910 6034.67 8
 3 -1 7 228609 6144.94 8
 7 -1 3 197162 5343.55 1
 3 7 -1 106923 5643.02 4
 7 -3 1 150941 6066.4 7
 -3 -7 -1 184984 7722.57 1
 1 7 -3 138258 6081.35 4
 -3 7 1 149861 5037.35 2
 7 1 -3 161757 6006.61 7
 3 1 -7 193004 6767.37 7
 -1 7 3 164489 5607.5 4
 1 3 -7 259402 8496.82 7
 -1 -7 -3 191454 9018.7 1
 -3 7 1 171870 5659.28 4
 -7 3 1 201028 6597.01 2
 3 7 -1 51269.1 3669.38 7
 3 -7 1 194348 7654.67 6
 -7 -1 -3 174310 4902.06 3
 7 1 3 191014 6281.79 6
 -7 1 -3 170284 5803.67 10
 -7 3 -1 191938 5685.2 10
 -7 -1 3 107828 5411.42 2
 7 3 1 178306 6582.32 6
 -7 -1 3 80232.3 4374.13 10
 -7 -3 1 156329 6237.43 10
 -3 -1 7 197411 6389.14 10
 -7 -3 1 153623 5197.58 3
 -7 -1 3 154955 5001.24 3
 -1 -3 7 178245 6153.26 10
 3 -1 -7 187589 6488.18 5
 -1 -7 3 153467 5560.08 10
 1 -3 -7 86182 4986.15 5
 -3 -7 1 185281 6118.58 3
 -7 1 -3 165067 5262.19 9
 -7 3 -1 165406 5198.73 9
 -1 3 -7 165892 5439.37 5
 -3 1 -7 191480 5929.94 5
 -7 -1 3 127155 5465.61 9
 -7 -3 1 151416 5923.83 9
 -3 -1 7 221693 7148.75 9
 -1 -7 3 234054 6936.95 3
 -1 -3 7 203106 6972.39 9
 -1 -7 3 137331 5383.65 9
 -7 1 -3 165838 4451.65 5
 -7 3 -1 181099 4631.4 5
 1 -7 -3 250181 9338.22 1
 -7 -3 1 156940 5537.6 8
 -1 7 -3 139300 5238.54 2
 -7 -1 3 158790 5606.65 8
 7 -3 -1 206187 6002.86 1
 3 -7 -1 183377 5899.01 1
 -3 -1 7 169876 5634.8 8
 -1 -3 7 145807 5373.52 8
 3 1 7 223252 5992.35 8
 -3 7 -1 145585 5099.86 2
 -7 1 -3 175998 6519.36 2
 3 7 1 112670 5656.57 4
 7 -3 -1 185848 6473.07 7
 -3 -7 1 166049 6479.87 1
 7 -1 -3 206138 6598.23 1
 -1 7 -3 190887 6837.02 4
 7 -1 -3 193018 6383.93 7
 3 -1 -7 160170 6211.73 7
 -3 7 -1 179857 5730.61 4
 -1 3 -7 153776 7278.53 7
 -7 3 -1 106484 4157.97 3
 -1 -7 3 126033 5495.19 1
 -7 1 -3 181509 4944.12 3
 7 -3 -1 169946 6525.43 6
 -3 -7 3 165554 5871.06 10
 3 7 3 20679.1 2578.16 6
 7 -3 -3 183794 6196.09 1
 -3 3 -7 165162 5324.2 5
 -7 -3 3 145409 5834.06 9
 -3 -3 7 194588 6442.85 9
 -3 -7 3 183097 6531.39 9
 -3 -3 7 151236 4516.47 3
 3 -7 -3 224667 8406.49 1
 -7 3 -3 165040 4606.83 5
 -7 -3 3 153492 5591.95 8
 -3 -7 3 158099 6097.1 8
 -3 -3 7 148784 5092.42 8
 -3 7 -3 141059 5167.85 2
 3 -3 -7 166431 6146.31 7
 -3 7 -3 140156 5569.57 4
 -7 3 -3 115690 4084.55 3
 -7 -3 3 92479 4636.36 10
 -7 -5 -3 132880 4853.24 3
 7 5 -3 97684.2 4370.26 6
 3 5 -7 55925.3 3149.53 5
 3 -5 7 141326 5286.81 10
 5 -3 7 71986.8 3669.62 10
 7 -3 5 96839.6 3834.12 10
 3 -7 5 150305 5781.29 1
 3 -5 7 147199 5401.86 9
 5 -3 7 127998 4998.24 9
 7 -3 5 119221 3974.2 9
 -7 5 3 133153 4381.68 5
 5 3 -7 126640 6076.9 4
 7 5 -3 113748 5354.32 4
 3 5 -7 127048 6079.03 4
 3 -5 7 142739 5333.5 8
 7 -3 5 136870 4471.67 8
 7 3 -5 131562 5139.6 7
 -5 7 3 86842.1 4111.41 2
 5 7 -3 9081.72 1582.84 7
 -3 7 5 82412.2 4370.6 4
 -7 -3 -5 124194 4448.61 3
 1 -7 5 146455 5878.73 1
 -7 1 5 134124 5904.05 2
 -7 1 5 72894.8 4329.53 10
 7 5 -1 146451 5905.68 6
 -7 -5 -1 143586 5217.65 3
 -5 -7 -1 114643 4802.57 3
 5 7 -1 154370 5918.6 6
 1 -5 7 89506.2 4306.31 10
 1 -7 5 148841 5435.11 10
 -5 1 7 131445 5255.73 2
 5 -7 1 142172 4501.79 10
 1 5 -7 99557 4376.06 5
 7 -5 1 130531 4417.21 10
 -7 5 1 123173 4648.67 9
 -7 1 5 118105 5182.18 9
 -5 -1 -7 158876 6300.21 5
 -7 -1 -5 153180 5410.34 5
 7 -5 1 144938 4798.25 1
 1 -5 7 115421 4992.52 9
 1 -7 5 140165 5434.84 9
 -7 5 1 153718 4298.7 5
 5 -7 1 52470 2673.96 9
 1 -7 5 127606 4876.84 3
 7 -1 5 118580 4157.37 9
 7 -5 1 144056 4258.68 9
 -5 -7 -1 161067 7041.6 1
 7 1 -5 118941 6277.98 4
 5 1 -7 138537 6928.44 4
 7 5 -1 99321 5570.26 4
 1 -5 7 141027 5529.02 8
 -7 5 1 139382 5023.4 10
 1 5 -7 123059 6561.74 4
 5 7 -1 122622 5894.83 4
 5 -1 7 170191 5168.55 8
 1 7 -5 114812 5846.08 4
 5 -7 1 138224 4809.46 1
 7 -1 5 162316 4879.68 8
 7 -5 1 135129 5380.12 7
 -5 7 1 117405 4687.42 2
 7 1 -5 126756 5229.78 7
 5 1 -7 151793 5724.36 7
 -7 5 1 139748 5421.53 2
 1 5 -7 186076 6921.9 7
 -5 7 1 135280 4919.53 4
 1 7 -5 148238 6131.47 7
 5 -7 1 157147 6807.01 6
 -7 -1 -5 129863 4290.81 3
 7 -5 1 142500 5771.88 6
 7 -1 5 113744 4623.12 6
 7 1 5 73869 3873.1 6
 7 5 1 130679 5740.65 6
 -7 -1 5 131576 5421.31 10
 -7 -5 1 134298 5904.6 10
 -5 -1 7 144024 5745.48 10
 -7 -1 5 130143 5373.78 2
 5 7 1 155968 6512.57 6
 -1 -7 5 125676 4993.04 10
 -7 -5 1 127054 4698.98 3
 -5 -7 1 133773 4932.37 3
 -1 5 -7 121539 4830.68 5
 -5 -1 7 147065 5294.48 2
 -5 1 -7 160404 5424.32 5
 -7 -1 5 126068 5260.14 9
 -7 -5 1 95373.5 4884.65 9
 -5 -1 7 147095 5646.38 9
 -7 1 -5 150893 4742.39 5
 7 -5 -1 169025 5564.25 1
 -1 -7 5 135790 5666.64 9
 -1 -7 5 151286 5111.72 3
 -7 5 -1 120302 3670.77 5
 -1 -5 7 116510 4235.9 3
 -7 -5 1 127604 5142.4 8
 -5 -7 1 138437 5856.16 1
 -7 -1 5 146768 5280.9 8
 -5 -1 7 140257 4985.53 8
 -1 -7 5 89933.6 4657.79 8
 -1 -5 7 125570 5226.3 8
 5 1 7 154180 4994.61 8
 5 -7 -1 125532 4885.68 7
 -5 7 -1 123639 4659.45 2
 5 -7 -1 152216 5464.09 1
 7 -5 -1 138861 5448.66 7
 -1 7 -5 110806 5906.63 4
 -7 5 -1 131546 5019.6 2
 7 -1 -5 119044 5243.73 7
 5 -1 -7 129214 5464.12 7
 -1 -7 5 122595 5382.96 1
 -5 7 -1 132183 4901.66 4
 -1 5 -7 180785 7319.52 7
 5 -7 -1 102246 6801.56 6
 -7 1 -5 124858 4186.66 3
 7 -5 -1 101345 5714.18 6
 7 3 5 9819.08 1535.14 6
 7 5 3 60850.5 4128.26 6
 5 7 3 48297.5 3684.48 6
 -5 -7 3 118818 4963.03 10
 7 -5 -3 138855 5638.31 1
 -7 -3 5 128367 4368.9 3
 -5 -3 7 123373 4208.05 3
 -7 -5 3 132481 5221.71 9
 -5 -3 7 131154 4901.15 9
 -5 -3 7 112894 4444.93 2
 -5 -7 3 105512 4798.82 9
 -3 7 -5 123383 5140.18 2
 -5 -7 3 113475 4880.38 8
 -3 -7 5 125059 4959.98 8
 -7 3 -5 123819 5464.65 2
 -3 -7 5 113872 5153.46 1
 5 -7 -3 133786 5907.93 1
 3 -7 -5 137527 5657.29 7
 5 -3 -7 112183 5159.7 7
 -5 7 -3 67810.7 3837.73 4
 1 -7 7 71880.9 4189.73 8
 0 -8 0 199578 7136.65 1
 8 0 0 202326 7060.46 6
 -8 0 0 195024 5576.51 3
 -8 0 0 227239 7158.58 10
 0 0 -8 166250 6184.49 5
 -8 0 0 207057 6515.61 9
 -8 0 0 188844 5619.81 5
 0 0 8 153934 5474.48 8
 0 8 0 190768 6639.5 4
 -8 -2 -2 187373 5521.27 3
 8 2 -2 151300 6175.96 6
 -8 -2 -2 194705 6911.88 10
 -8 2 2 207661 6771.83 10
 2 -8 2 179751 5937.51 10
 2 2 -8 147151 5263.03 5
 -2 -2 -8 159150 7604.21 5
 2 -8 2 186873 6445.11 1
 -8 -2 -2 122744 5164.88 9
 -8 2 2 185211 6128.75 9
 -2 2 8 109787 5476.32 2
 2 -8 2 38200 2827.09 9
 8 2 -2 128060 6479.69 4
 2 -2 8 202677 6123.7 8
 2 8 -2 125515 5756.15 4
 -2 -8 -2 201980 8525.23 1
 2 2 -8 217800 7549.66 7
 -2 8 2 156490 5571.12 4
 -8 2 2 180566 6971.83 2
 8 -2 2 173772 6051.31 6
 0 -8 2 128466 5411.38 1
 8 0 2 150650 5800.66 6
 8 0 -2 96466.9 5322.4 6
 8 2 0 117073 5566.41 6
 -8 2 0 146787 5411.34 10
 -8 0 2 93126.6 4087.87 3
 -8 -2 0 136191 4986.79 3
 -8 0 2 145299 5940.83 10
 0 -8 2 116603 5272.62 10
 2 0 -8 126250 5211.75 5
 0 -2 -8 123149 5989.52 5
 0 2 -8 97040.5 4454.74 5
 8 -2 0 151604 5188.95 1
 -8 2 0 130345 4913.84 9
 -8 0 2 129364 5473.67 9
 2 -8 0 152520 6043.85 1
 -8 2 0 147996 4650.78 5
 -8 -2 0 108737 4680.12 5
 -2 0 8 96403.9 4649.77 8
 0 -2 8 129901 5065.85 8
 0 8 -2 124591 5607.86 4
 8 0 -2 134007 5656.4 7
 0 8 2 109136 4918.17 4
 2 0 -8 105577 5328.8 7
 -2 8 0 125389 4977.34 4
 -2 -8 0 118745 5671.62 1
 0 2 -8 22360.6 2825.18 7
 -8 0 2 111771 5699.78 2
 0 -8 -2 155146 7264.9 1
 -8 0 -2 139676 4634.27 3
 8 2 2 193798 7055.96 6
 -8 2 -2 184748 5785.04 10
 -8 -2 2 143988 6063.51 10
 -8 -2 2 154094 5423.52 3
 -2 -2 8 194328 6471.17 10
 -2 -8 2 185748 6892.73 10
 2 -2 -8 120092 6057.81 5
 2 -8 -2 231072 8472.69 1
 8 -2 -2 186277 6145.81 1
 -8 2 -2 170132 5412.13 9
 -2 2 -8 154269 5563.1 5
 -8 -2 2 139435 5892.04 9
 -2 -2 8 219601 7354.97 9
 -8 2 -2 163029 4596.02 5
 -2 -2 8 154148 5475.07 8
 -8 2 -2 172077 6444.43 2
 8 -2 -2 168978 6109.84 7
 -2 8 -2 156950 5833.53 4
 -2 -8 2 139713 5738.5 1
 -8 2 -2 163895 4969.35 3
 -4 4 8 23452.8 2396.24 2
 4 4 -8 44066.2 2798.78 5
 4 -8 4 132158 4705.12 10
 8 -4 4 81756.9 3362.3 10
 8 -4 4 115460 4053.5 1
 4 -8 4 140044 5370.79 1
 4 -8 4 124995 4611.72 9
 8 -4 4 120496 3847.25 9
 8 4 -4 114345 5345.36 4
 4 4 -8 119254 6013.04 4
 4 8 -4 105558 5073.95 4
 4 4 -8 140143 5117.54 7
 4 8 -4 10699.6 1503.18 7
 -4 8 4 74387.9 3948.26 4
 -8 4 4 118772 5461.68 2
 8 -4 4 109680 4533.07 6
 -8 -4 -4 133928 4872.42 3
 -8 -4 -2 113690 4533.34 3
 4 2 -8 93151 3939.51 5
 2 -4 8 86838 4445.71 10
 4 -8 2 123341 4545.58 10
 8 -2 4 25176.1 1983.92 10
 8 -4 2 102759 3781.64 10
 -8 2 4 98664.7 4731.79 9
 2 -4 8 101535 4844.59 9
 4 -8 2 102113 4235.25 1
 4 -8 2 61475.5 3251.07 9
 8 -2 4 106380 3789.53 9
 8 -4 2 110370 3743.82 9
 8 2 -4 97891.8 5274.65 4
 -4 -8 -2 121942 6373.53 1
 4 2 -8 112643 6261.28 4
 8 4 -2 82952.6 5021.69 4
 8 -4 2 101800 3811.36 1
 2 -4 8 112241 4767.06 8
 4 -2 8 130912 4877.27 8
 2 8 -4 80952.5 4706.67 4
 8 2 -4 97577.4 4690.24 7
 -2 8 4 64568.7 3821.73 4
 -4 8 2 100163 4356.42 4
 -8 4 2 108266 5088.42 2
 8 -2 4 96718.6 3722.17 1
 8 -4 2 108623 4777.03 6
 -8 -2 -4 110893 4188.52 3
 8 -2 4 100082 4388.19 6
 8 0 4 147396 5612.71 6
 -8 0 4 136510 6300.19 2
 -8 4 0 160399 5412.8 10
 8 4 0 152907 6074.32 6
 -8 -4 0 136058 6227.18 10
 -8 0 4 136806 5787.32 10
 -8 -4 0 139061 5179.62 3
 0 -4 8 140860 5665.26 10
 0 -8 4 131628 5299.52 10
 0 4 -8 117111 4749.35 5
 -8 4 0 142839 4898.27 9
 -4 0 -8 175364 6484.83 5
 -8 -4 0 87033 4733.3 9
 -8 0 4 125985 5361.4 9
 -4 0 8 157106 5577.59 2
 -8 0 -4 153157 5060.02 5
 0 -4 8 166273 6478.61 9
 0 -8 4 165393 6061.24 3
 0 -8 4 77017 4127.34 9
 8 0 4 164532 5143 1
 -8 4 0 158712 4479.78 5
 4 -8 0 153342 5481.92 1
 -8 0 4 147584 5430.8 8
 -4 0 8 95665.1 4267.02 8
 0 -4 8 130842 5254.26 8
 -4 -8 0 156648 6524.76 1
 4 0 8 185470 5737.51 8
 4 8 0 114755 5893.02 4
 8 -4 0 157744 6166.71 7
 0 8 -4 123375 5973.14 4
 8 0 -4 131291 5518.39 7
 -8 4 0 162970 6052.41 2
 8 -4 0 158114 5100.87 1
 4 0 -8 142460 5858.65 7
 -4 8 0 141174 5130.27 4
 0 4 -8 184665 7431.71 7
 0 -8 4 129043 5534.74 1
 -8 0 -4 155564 4709.83 3
 8 -4 0 123026 5588.83 6
 8 4 2 104553 5464.3 6
 -8 -2 4 104977 4810.71 10
 -4 -2 8 58439.8 3626.7 10
 -8 -4 2 100561 4108.95 3
 4 8 2 49858.8 3840.75 6
 -8 -2 4 105913 4183.38 3
 -4 -8 2 107763 4567.93 3
 -2 4 -8 102084 4426.17 5
 -4 2 -8 114511 4723.47 5
 -8 -2 4 106898 4782.75 9
 -4 -2 8 106811 4772.43 9
 -8 2 -4 108300 3928.09 5
 -4 -2 8 109306 4421.86 2
 -8 4 -2 92400.8 3241.96 5
 4 -8 -2 127759 5624.5 1
 -8 -4 2 102604 4484.04 8
 -2 -4 8 91743.5 4044.42 8
 -4 8 -2 87255.2 4071.72 2
 -4 -8 2 94195.4 4684.8 1
 -8 2 -4 83548.5 4744.31 2
 4 2 8 82097.6 4126.43 8
 4 -2 -8 90317.5 4807.86 7
 8 4 4 34525.2 3091.12 6
 -8 -4 4 22341.5 2133.48 10
 -4 -4 8 112733 4271.5 10
 -4 -8 4 114414 4509.07 10
 -8 -4 4 124838 4233.67 3
 -4 -8 4 138409 4608.23 3
 -4 4 -8 128029 4788.48 5
 -8 -4 4 120764 4775.32 9
 -4 -4 8 108995 3574.14 3
 -4 -4 8 127746 4810.9 9
 -4 -8 4 74581.5 3930.51 9
 -8 4 -4 117928 3880.13 5
 -4 -4 8 96118.5 4083.44 2
 -8 -4 4 130355 4691.76 8
 -4 8 -4 105610 4626.51 2
 -4 -8 4 114009 4801.67 1
 -4 -4 8 112624 4078.48 8
 -8 4 -4 108966 4846.92 2
 4 -8 -4 113364 4993.56 7
 8 -4 -4 132131 5861.82 7
 -4 8 -4 23342.4 2501.86 4
 9 1 -1 77997.2 4530.37 6
 -9 -1 -1 140402 6052.12 10
 -1 -1 -9 133288 6078.99 5
 -9 -1 -1 130670 5438.65 9
 -1 1 9 105839 5366.05 2
 -9 -1 -1 115418 4520.12 5
 1 -1 9 116835 4953.49 8
 -9 1 1 104702 5684.16 2
 -1 -9 -1 131022 6321.74 1
 9 -1 -1 57873.6 3933.11 6
 1 -9 -1 146599 6645.56 1
 -9 -1 1 115324 4678.86 3
 1 -1 -9 120517 5358.92 5
 -9 -1 1 109315 4603.04 5
 -1 -1 9 86008 4371.2 8
 1 9 1 109842 5418.19 4
 -9 1 -1 87350.3 3912.6 3
 -9 -3 -1 116123 4659.03 3
 -9 3 1 121386 5010.74 10
 9 3 -1 109640 5319.13 6
 -9 1 3 106525 5187.75 10
 3 1 -9 81393 3916.5 5
 1 -9 3 89133.9 4535.62 10
 1 3 -9 93821.6 4090.65 5
 3 -9 1 135436 5708.86 1
 -3 -1 -9 104762 5868.47 5
 -9 3 1 112809 4549.11 9
 -9 1 3 110028 4956.73 9
 -3 1 9 116684 5074.11 2
 -9 3 1 123326 4331.54 5
 1 -3 9 107530 4719.09 8
 3 -1 9 130692 5007.53 8
 -3 -9 -1 120273 5959.9 1
 3 9 -1 80415.6 4634.9 4
 9 -1 3 124012 4494.08 1
 1 9 -3 80892 4728.56 4
 -1 9 3 40198.6 3090.66 4
 3 1 -9 95160.5 4851.55 7
 -9 3 1 114779 5546.08 2
 -3 9 1 104142 4583.17 4
 -9 1 3 79561.2 4794.86 2
 9 -3 1 113332 4332.77 1
 9 -3 1 108061 5045.42 6
 -9 -1 -3 118226 4403.32 3
 9 -1 3 112441 4947.49 6
 9 1 3 117394 5326.76 6
 -9 1 -3 94943.5 4771.43 10
 -9 3 -1 121496 4698.67 10
 9 3 1 107664 5409.08 6
 -9 -3 1 95852.1 5273.51 10
 -9 -3 1 105864 4538.95 3
 -9 -1 3 106829 5162.61 10
 -1 -9 3 95075.5 4837.12 10
 3 -9 -1 151391 6592.75 1
 -1 3 -9 96575 4386.77 5
 -9 1 -3 90959.6 4378.91 9
 -9 3 -1 117499 4503.97 9
 -3 1 -9 102794 4969.22 5
 -9 -3 1 89529.3 4737.73 9
 -9 -1 3 94113.5 4673.78 9
 -1 -9 3 10401.6 1757.58 9
 -9 1 -3 115633 4320.14 5
 -3 -1 9 124991 4841.76 2
 -1 -3 9 90812.8 3716.4 3
 9 1 3 139286 5154.45 1
 -9 3 -1 110204 3863.78 5
 9 -1 -3 107183 4736.39 1
 -3 -1 9 67816.4 3477.77 8
 -1 -3 9 96854.5 4467.47 8
 3 1 9 46320.4 3108.52 8
 -3 -9 1 108283 5107.59 1
 -1 9 -3 107043 5361.56 4
 -9 3 -1 108655 5195.23 2
 9 -1 -3 102610 5037.49 7
 -3 9 -1 106609 4679.48 4
 -9 1 -3 102893 3975.39 3
 -3 -9 3 109391 4494.37 3

_iucr_refine_fcf_details
;
data_OW3_rt_Au5filt_17280_run
_computing_structure_refinement   'olex2.refine 1.5-alpha (Bourhis et al., 2015)'
_shelx_refln_list_code            4
loop_
  _space_group_symop_id
  _space_group_symop_operation_xyz
    1  x,y,z
    2  x,-z,y
    3  x,z,-y
    4  z,y,-x
    5  -z,y,x
    6  -y,x,z
    7  y,-x,z
    8  z,x,y
    9  y,z,x
   10  -y,-z,x
   11  z,-x,-y
   12  -y,z,-x
   13  -z,-x,y
   14  -z,x,-y
   15  y,-z,-x
   16  x,-y,-z
   17  -x,y,-z
   18  -x,-y,z
   19  y,x,-z
   20  -y,-x,-z
   21  z,-y,x
   22  -z,-y,-x
   23  -x,z,y
   24  -x,-z,-y
   25  -x,-y,-z
   26  -x,z,-y
   27  -x,-z,y
   28  -z,-y,x
   29  z,-y,-x
   30  y,-x,-z
   31  -y,x,-z
   32  -z,-x,-y
   33  -y,-z,-x
   34  y,z,-x
   35  -z,x,y
   36  y,-z,x
   37  z,x,-y
   38  z,-x,y
   39  -y,z,x
   40  -x,y,z
   41  x,-y,z
   42  x,y,-z
   43  -y,-x,z
   44  y,x,z
   45  -z,y,-x
   46  z,y,x
   47  x,-z,-y
   48  x,z,y
   49  x,y+1/2,z+1/2
   50  x,-z+1/2,y+1/2
   51  x,z+1/2,-y+1/2
   52  z,y+1/2,-x+1/2
   53  -z,y+1/2,x+1/2
   54  -y,x+1/2,z+1/2
   55  y,-x+1/2,z+1/2
   56  z,x+1/2,y+1/2
   57  y,z+1/2,x+1/2
   58  -y,-z+1/2,x+1/2
   59  z,-x+1/2,-y+1/2
   60  -y,z+1/2,-x+1/2
   61  -z,-x+1/2,y+1/2
   62  -z,x+1/2,-y+1/2
   63  y,-z+1/2,-x+1/2
   64  x,-y+1/2,-z+1/2
   65  -x,y+1/2,-z+1/2
   66  -x,-y+1/2,z+1/2
   67  y,x+1/2,-z+1/2
   68  -y,-x+1/2,-z+1/2
   69  z,-y+1/2,x+1/2
   70  -z,-y+1/2,-x+1/2
   71  -x,z+1/2,y+1/2
   72  -x,-z+1/2,-y+1/2
   73  -x,-y+1/2,-z+1/2
   74  -x,z+1/2,-y+1/2
   75  -x,-z+1/2,y+1/2
   76  -z,-y+1/2,x+1/2
   77  z,-y+1/2,-x+1/2
   78  y,-x+1/2,-z+1/2
   79  -y,x+1/2,-z+1/2
   80  -z,-x+1/2,-y+1/2
   81  -y,-z+1/2,-x+1/2
   82  y,z+1/2,-x+1/2
   83  -z,x+1/2,y+1/2
   84  y,-z+1/2,x+1/2
   85  z,x+1/2,-y+1/2
   86  z,-x+1/2,y+1/2
   87  -y,z+1/2,x+1/2
   88  -x,y+1/2,z+1/2
   89  x,-y+1/2,z+1/2
   90  x,y+1/2,-z+1/2
   91  -y,-x+1/2,z+1/2
   92  y,x+1/2,z+1/2
   93  -z,y+1/2,-x+1/2
   94  z,y+1/2,x+1/2
   95  x,-z+1/2,-y+1/2
   96  x,z+1/2,y+1/2
   97  x+1/2,y,z+1/2
   98  x+1/2,-z,y+1/2
   99  x+1/2,z,-y+1/2
  100  z+1/2,y,-x+1/2
  101  -z+1/2,y,x+1/2
  102  -y+1/2,x,z+1/2
  103  y+1/2,-x,z+1/2
  104  z+1/2,x,y+1/2
  105  y+1/2,z,x+1/2
  106  -y+1/2,-z,x+1/2
  107  z+1/2,-x,-y+1/2
  108  -y+1/2,z,-x+1/2
  109  -z+1/2,-x,y+1/2
  110  -z+1/2,x,-y+1/2
  111  y+1/2,-z,-x+1/2
  112  x+1/2,-y,-z+1/2
  113  -x+1/2,y,-z+1/2
  114  -x+1/2,-y,z+1/2
  115  y+1/2,x,-z+1/2
  116  -y+1/2,-x,-z+1/2
  117  z+1/2,-y,x+1/2
  118  -z+1/2,-y,-x+1/2
  119  -x+1/2,z,y+1/2
  120  -x+1/2,-z,-y+1/2
  121  -x+1/2,-y,-z+1/2
  122  -x+1/2,z,-y+1/2
  123  -x+1/2,-z,y+1/2
  124  -z+1/2,-y,x+1/2
  125  z+1/2,-y,-x+1/2
  126  y+1/2,-x,-z+1/2
  127  -y+1/2,x,-z+1/2
  128  -z+1/2,-x,-y+1/2
  129  -y+1/2,-z,-x+1/2
  130  y+1/2,z,-x+1/2
  131  -z+1/2,x,y+1/2
  132  y+1/2,-z,x+1/2
  133  z+1/2,x,-y+1/2
  134  z+1/2,-x,y+1/2
  135  -y+1/2,z,x+1/2
  136  -x+1/2,y,z+1/2
  137  x+1/2,-y,z+1/2
  138  x+1/2,y,-z+1/2
  139  -y+1/2,-x,z+1/2
  140  y+1/2,x,z+1/2
  141  -z+1/2,y,-x+1/2
  142  z+1/2,y,x+1/2
  143  x+1/2,-z,-y+1/2
  144  x+1/2,z,y+1/2
  145  x+1/2,y+1/2,z
  146  x+1/2,-z+1/2,y
  147  x+1/2,z+1/2,-y
  148  z+1/2,y+1/2,-x
  149  -z+1/2,y+1/2,x
  150  -y+1/2,x+1/2,z
  151  y+1/2,-x+1/2,z
  152  z+1/2,x+1/2,y
  153  y+1/2,z+1/2,x
  154  -y+1/2,-z+1/2,x
  155  z+1/2,-x+1/2,-y
  156  -y+1/2,z+1/2,-x
  157  -z+1/2,-x+1/2,y
  158  -z+1/2,x+1/2,-y
  159  y+1/2,-z+1/2,-x
  160  x+1/2,-y+1/2,-z
  161  -x+1/2,y+1/2,-z
  162  -x+1/2,-y+1/2,z
  163  y+1/2,x+1/2,-z
  164  -y+1/2,-x+1/2,-z
  165  z+1/2,-y+1/2,x
  166  -z+1/2,-y+1/2,-x
  167  -x+1/2,z+1/2,y
  168  -x+1/2,-z+1/2,-y
  169  -x+1/2,-y+1/2,-z
  170  -x+1/2,z+1/2,-y
  171  -x+1/2,-z+1/2,y
  172  -z+1/2,-y+1/2,x
  173  z+1/2,-y+1/2,-x
  174  y+1/2,-x+1/2,-z
  175  -y+1/2,x+1/2,-z
  176  -z+1/2,-x+1/2,-y
  177  -y+1/2,-z+1/2,-x
  178  y+1/2,z+1/2,-x
  179  -z+1/2,x+1/2,y
  180  y+1/2,-z+1/2,x
  181  z+1/2,x+1/2,-y
  182  z+1/2,-x+1/2,y
  183  -y+1/2,z+1/2,x
  184  -x+1/2,y+1/2,z
  185  x+1/2,-y+1/2,z
  186  x+1/2,y+1/2,-z
  187  -y+1/2,-x+1/2,z
  188  y+1/2,x+1/2,z
  189  -z+1/2,y+1/2,-x
  190  z+1/2,y+1/2,x
  191  x+1/2,-z+1/2,-y
  192  x+1/2,z+1/2,y

_space_group_crystal_system       cubic
_space_group_IT_number            225
_space_group_name_H-M_alt         'F m -3 m'
_space_group_name_Hall            '-F 4 2 3'
_symmetry_space_group_name_H-M    'F m -3 m'
_symmetry_space_group_name_Hall   '-F 4 2 3'
_symmetry_Int_Tables_number       225
_cell_length_a                    5.4754(2)
_cell_length_b                    5.4754(2)
_cell_length_c                    5.4754(2)
_cell_angle_alpha                 90
_cell_angle_beta                  90
_cell_angle_gamma                 90
_cell_volume                      164.151(10)
loop_
  _refln_index_h
  _refln_index_k
  _refln_index_l
  _refln_F_squared_calc
  _refln_F_squared_meas
  _refln_F_squared_sigma
  _refln_F_squared_weight
  _refln_observed_status
0 2 0 48111.300 48297.000 916.961 43.193 o
0 2 2 74363.400 75527.300 910.250 29.502 o
0 4 0 50795.800 49376.500 882.554 35.047 o
0 4 2 27890.500 27011.100 358.467 59.207 o
0 4 4 30566.300 29925.000 608.808 51.132 o
0 6 0 18987.200 19020.100 789.644 69.878 o
0 6 2 25063.000 25322.200 336.650 62.716 o
0 6 4 13589.300 13224.900 181.542 111.022 o
0 6 6 13157.800 13085.000 276.122 111.542 o
0 8 0 15217.800 15499.300 443.592 93.462 o
0 8 2 10056.500 9852.940 265.040 143.391 o
0 8 4 11461.400 11437.300 233.009 127.857 o
1 1 1 75212.700 74379.600 1422.760 32.854 o
1 3 1 48987.900 50326.400 482.837 39.293 o
1 3 3 36516.200 34660.600 482.669 46.917 o
1 5 1 28921.500 28493.500 383.574 56.182 o
1 5 3 23638.500 22738.800 251.720 67.264 o
1 5 5 16628.900 16569.800 233.028 91.356 o
1 7 1 16628.900 16905.900 282.847 90.481 o
1 7 3 14193.100 13837.200 209.495 105.877 o
1 7 5 10607.500 10513.100 136.743 140.298 o
1 7 7 7187.850 5619.690 327.556 190.275 o
1 9 1 9266.360 8702.380 348.726 149.673 o
1 9 3 8141.110 8170.010 156.262 179.455 o
2 2 2 35281.900 36154.300 683.926 48.418 o
2 4 2 38396.600 38050.900 502.060 44.104 o
2 4 4 18987.200 19144.700 239.502 81.698 o
2 6 2 15988.300 15975.100 263.554 94.517 o
2 6 4 17757.700 18167.600 165.931 86.511 o
2 6 6 8743.020 9087.020 143.914 168.104 o
2 8 2 13157.800 13323.600 341.220 109.528 o
2 8 4 7647.830 7685.240 151.049 190.780 o
3 3 3 28921.500 30404.500 650.609 53.345 o
3 5 3 19692.500 20641.700 243.319 78.444 o
3 5 5 14193.100 14787.200 189.683 105.968 o
3 7 3 12223.100 12435.700 337.625 117.258 o
3 7 5 9266.360 8842.410 311.425 151.881 o
3 9 3 7187.850 8552.260 351.373 185.347 o
4 4 4 20949.500 21472.800 498.836 70.372 o
4 6 4 10056.500 10112.100 206.124 145.603 o
4 6 6 10046.100 10091.400 191.383 145.900 o
4 8 4 8852.050 8223.500 346.595 155.937 o
5 5 5 10607.500 11227.500 196.142 138.410 o
;
_iucr_refine_instructions_details
;
TITL 
CELL 0.71754 5.475379 5.475379 5.475379 90 90 90
ZERR 4 0.0002 0.0002 0.0002 0 0 0
LATT 4
SYMM -Y,+X,+Z
SYMM -X,-Y,+Z
SYMM +Y,-X,+Z
SYMM +X,-Z,+Y
SYMM +X,-Y,-Z
SYMM +X,+Z,-Y
SYMM +Z,+Y,-X
SYMM -X,+Y,-Z
SYMM -Z,+Y,+X
SYMM +Z,+X,+Y
SYMM +Y,+Z,+X
SYMM -Y,-Z,+X
SYMM +Z,-X,-Y
SYMM -Y,+Z,-X
SYMM -Z,-X,+Y
SYMM -Z,+X,-Y
SYMM +Y,-Z,-X
SYMM +Y,+X,-Z
SYMM -Y,-X,-Z
SYMM -X,+Z,+Y
SYMM -X,-Z,-Y
SYMM +Z,-Y,+X
SYMM -Z,-Y,-X
SFAC O U
DISP O 0.0114 0.0064 34.2703
DISP U -11.4586 4.1432 18368.4522
UNIT 8 4

L.S. 19 0 0
PLAN  5
CONF
MORE -1
fmap 2 53
DAMP 100
ACTA
EXTI 0.020536
WGHT 0 17.413201
FVAR 3.623629
REM <olex2.extras>
REM <dispersion
REM  <U1 "-11.8881 8.5949">
REM >
REM <HklSrc "%.\\OW3_rt_Au5filt_17280_run.hkl">
REM </olex2.extras>

U1    2     0.50000  0.00000  0.00000  10.02083  0.00408
O1    1     0.25000  0.25000 -0.25000  10.04167  0.00688
HKLF 4

END
Q1 1 0.5 0 -0.35 11 0.05 2.7
Q2 1 0.35 0.15 -0.35 11 0.05 1.44
Q3 1 0.25 0.5 -0.25 11 0.05 0.91

  REM The information below was added by Olex2.
  REM
  REM R1 = 0.0141 for 43 Fo > 4sig(Fo) and 0.0141 for all 43 data
  REM 6 parameters refined using 0 restraints
  REM Highest difference peak 2.6982, deepest hole -2.4422
  REM Mean Shift 0.0007, Max Shift -0.0029.

  REM +++ Tabular Listing of Refinement Information +++
  REM R1_all = 0.0141
  REM R1_gt = 0.0141
  REM wR_ref = 0.0361
  REM GOOF = 1.0540
  REM Shift_max = -0.0029
  REM Shift_mean = 0.0007
  REM Reflections_all = 43
  REM Reflections_gt = 43
  REM Parameters = 6
  REM Hole = -2.4422
  REM Peak = 2.6982
  REM Flack = n/a

  
;
_olex2_submission_special_instructions  'No special instructions were received'
